164
Lattice="8.415867048 0.0 0.0 0.0 10.1810783296 0.0 0.0 0.0 17.9411389379" Properties=species:S:1:pos:R:3:CS:R:1 ENERGY=-2477.28343544 Natoms=164 NAME=DOWQAJ
S	0.756123574928	6.82084984573	0.387331865017	235.41
S	3.45180994907	3.36022848386	9.35790554188	235.41
S	4.96405709893	8.45076764865	17.5538070729	235.42
S	7.65974347307	1.73031068094	8.58324181185	235.42
S	2.19666753753	6.73799563464	15.4112872239	126.56
S	2.01126598647	3.44309111081	6.4407219629	126.56
S	6.40460106153	8.5336302756	2.52985171396	126.56
S	6.21919951047	1.64744805398	11.5004253908	126.56
O	1.95235491713	8.1392711616	15.7773353612	95.05
O	2.25557860687	2.04180716798	6.80676168429	95.05
O	6.16028844113	7.13234633278	2.16381199258	95.06
O	6.46351213087	3.04873199681	11.1343856694	95.06
O	3.12185746559	6.53941483578	14.2823828181	77.21
O	1.08607605841	3.64166349381	5.31180914122	77.21
O	7.32979098959	8.7322026586	3.65876453565	77.21
O	5.29400958241	1.44887567098	12.6293297967	77.21
N	2.67373779288	5.16650078077	0.914922570256	-20.39
N	1.53419573112	5.01457754882	9.88549624712	-20.39
N	6.88167131688	10.1051167136	17.0262163676	-20.39
N	5.74212925512	0.0759616159752	8.05565110661	-20.39
N	2.76891283333	5.8588236676	16.6195700877	15.22
N	1.43902069067	4.32225466198	7.64900482672	15.22
N	6.97684635733	9.41279382677	1.32156885015	15.22
N	5.64695421467	0.768284502812	10.292142527	15.22
N	5.33969932462	4.3520804948	14.0361093007	155.53
N	7.28410124738	5.82899783479	5.06554403966	155.53
N	1.13176580062	0.738458669994	3.90502963721	155.53
N	3.07616772338	9.44262807546	12.8756033141	155.53
H	5.28900214152	3.47220159493	13.5270166712	24.38
H	7.33479843048	6.70888515052	4.55644299432	24.38
H	1.08106861752	1.61834598573	4.41413068254	24.38
H	3.12686490648	8.56274075972	13.3846959435	24.38
H	4.50175669025	4.92919857761	14.1177516269	24.04
H	8.12204388175	5.25187975197	5.14718636589	24.04
H	0.293823166247	0.161340587177	3.82338731098	24.04
H	3.91411035775	10.0197377424	12.7939609878	24.04
C	2.19390713314	5.89492773724	17.839281699	-5.28
C	2.01402639086	4.28615059234	8.86870802212	-5.28
C	6.40184065714	9.376698173	0.101857238882	-5.28
C	6.22195991486	0.804388572448	9.07243091575	-5.28
C	1.92560087578	5.3003214827	2.05778048364	30.93
C	2.28233264822	4.88075684689	11.0283541605	30.93
C	6.13353439978	9.97130442755	15.8833584542	30.93
C	6.49026617222	0.209782317905	6.91279319323	30.93
H	2.21126065099	4.7472559479	2.95287527113	22.81
H	1.99667287301	5.43382238168	11.9234405321	22.81
H	6.41919417499	0.343283216888	14.9882720826	22.81
H	6.20460639701	9.8377951127	6.01769840574	22.81
C	0.843480274886	6.12851854302	1.97069309143	53.62
C	3.36445324911	4.05255978656	10.9412667683	53.62
C	5.05141379889	9.14309895135	15.9704458464	53.62
C	7.57238677311	1.03797937823	6.99988058544	53.62
H	0.092229486979	6.36102370196	2.71604435653	22.63
H	4.11570403702	3.82006304349	11.6866180334	22.63
H	4.30016301098	8.91060220828	15.2250945813	22.63
H	8.32363756102	1.2704761213	6.25452090447	22.63
C	0.635583111199	6.05931486829	14.9217614853	39.21
C	3.5723504128	4.1217634613	5.95118780846	39.21
C	4.8435166352	9.21230262609	3.01937745255	39.21
C	7.7802839368	0.968775703496	11.9899511294	39.21
C	0.573061634899	4.79493183473	14.3108200328	40.35
C	3.6348718891	5.38615491072	5.34024635597	40.35
C	4.7809951589	0.295607330061	3.63031890503	40.35
C	7.8428054131	9.88547099952	12.6008925819	40.35
H	1.49252035749	4.24370937482	14.1033268308	23.61
H	2.71541316651	5.93736895476	5.1327531539	23.61
H	5.70045388149	0.846829789971	3.83782052296	23.61
H	6.92334669051	9.33424853961	12.8083941998	23.61
C	7.76450418609	4.24189154754	13.9687402849	51.73
C	4.85929638591	5.93918678205	4.99817502394	51.73
C	3.55657066209	0.848647617253	3.97239865293	51.73
C	0.651362861914	9.33243071233	12.9429723298	51.73
H	7.72171791801	3.26343759694	13.4925873591	24.09
H	4.90208265399	6.91764073265	4.52201368223	24.09
H	3.51378439401	1.82710156785	4.44855999464	24.09
H	0.694149129986	8.35397676173	13.4191252556	24.09
C	6.55763518793	4.93423126611	14.2446544861	16.94
C	6.06616538407	5.24684706347	5.27408922511	16.94
C	2.34970166393	0.156307898683	3.69648445176	16.94
C	1.85823186007	10.0247704309	12.6670581286	16.94
C	6.64133098573	6.22991290922	14.8004467618	56.09
C	5.98246958627	3.95117383623	5.82988150083	56.09
C	2.43339746173	9.04171300102	3.14069217604	56.09
C	1.77453606227	1.13936532856	12.1112658529	56.09
H	5.72821782689	6.79047698155	14.9891894121	23.80
H	6.89558274511	3.39060134803	6.01861573524	23.80
H	1.52028430289	8.48114892869	2.95194952576	23.80
H	2.68764922111	1.69993781676	11.9225232026	23.80
C	7.86796885557	6.77492445925	15.1475339506	35.86
C	4.75583171643	3.4061622862	6.17696027375	35.86
C	3.66003533157	8.496701451	2.79361340312	35.86
C	0.547898192426	1.68438529445	11.7641786641	35.86
H	7.91563632653	7.76884677348	15.5920179688	23.73
H	4.70816424547	2.41223997197	6.62145270776	23.73
H	3.70770280253	7.50277913676	2.34912096911	23.73
H	0.500230721466	2.67829919282	11.319694646	23.73
N	0.849632273698	1.20960415494	17.3268143068	185.38
N	3.3583012503	8.97147417464	8.35624904583	185.38
N	5.0575657977	3.88093500985	0.614324631036	185.38
N	7.5662347743	6.30014331973	9.5848983079	185.38
H	-0.062243752687	0.650411868938	17.1470261391	17.38
H	4.27017727669	9.53066646065	8.17646087809	17.38
H	4.14568977131	4.44012729585	0.794112798782	17.38
H	8.47811080069	5.7409594496	9.76468647565	17.38
H	0.502056964615	2.11122965526	17.7983721693	21.28
H	3.70587655938	8.06984867432	8.82780690827	21.28
H	4.70999048862	2.97930950953	0.142766768602	21.28
H	7.91381008338	7.20176882005	9.11334044547	21.28
N	3.69146017913	1.71798143571	17.3887298407	201.16
N	0.516473344869	8.46309689387	8.41815616384	201.16
N	7.89939370313	3.37255772908	0.552409097164	201.16
N	4.72440686887	6.8085206005	9.52298277403	201.16
H	4.15989575489	0.900640843876	16.9836994073	31.29
H	0.04803776911	9.28044590158	8.01313414629	31.29
H	8.36782927889	4.18990673678	0.957439530583	31.29
H	4.25597129311	5.99118000867	9.92801320745	31.29
C	1.71429528594	0.465288041483	0.342374303247	129.73
C	2.49363823806	9.7157902881	9.31294798011	129.73
C	5.92222880994	4.62525112331	17.5987646346	129.73
C	6.70157176206	5.55583562214	8.62819937362	129.73
H	1.98910700853	9.69215011756	17.8124182514	28.21
H	2.21882651547	0.488928212021	8.8418445745	28.21
H	6.19704053253	5.57946737681	0.128729102366	28.21
H	6.42676003947	4.60161095277	9.09929436337	28.21
H	1.11687813181	0.263239905394	1.23900919441	27.80
H	3.09105539219	9.91783842419	10.2095828713	27.80
H	5.32481165581	4.8272992594	16.7021297435	27.80
H	7.29898891619	5.35377907019	7.73156448246	27.80
C	2.94480445463	1.30696732082	0.650538106943	129.64
C	1.26312906937	8.87411100876	9.62111178381	129.64
C	7.15273797863	3.78357184397	17.2906092468	129.64
C	5.47106259337	6.39750648561	8.32003556992	129.64
H	2.63632084799	2.22013939073	1.18918726148	29.71
H	1.57161267601	7.96094735472	10.1597609384	29.71
H	6.84425437199	2.87039977406	16.7519516764	29.71
H	5.77954620001	7.31067855552	7.78138641538	29.71
H	3.62124660035	0.741025509443	1.29924997074	31.23
H	0.58668692365	9.44006123601	10.2698236476	31.23
H	7.82918012435	4.34952207122	16.6418889671	31.23
H	4.79462044765	5.83156467424	7.67132370613	31.23
C	2.82291745218	2.33156547045	16.3684069515	131.05
C	1.38501607182	7.84951285914	7.39783327467	131.05
C	7.03085097618	2.75897369435	1.5727404022	131.05
C	5.59294959582	7.42211305111	10.5433140791	131.05
H	3.41249101822	2.46715350446	15.4519442776	28.45
H	0.795442505776	7.71392482513	6.48137901661	28.45
H	7.62042454222	2.62338566034	2.48919466026	28.45
H	5.00337602978	7.55769266925	11.4597683371	28.45
H	2.5307101324	3.3361338565	16.7166218665	28.37
H	1.6772233916	6.84494447309	7.74604818965	28.37
H	6.7386436564	1.75440530829	1.22452548722	28.37
H	5.8851569156	8.42667302129	10.1950907482	28.37
C	1.57539140032	1.50287187396	16.0599738401	130.59
C	2.63254212368	8.67821487149	7.08940016323	130.59
C	5.78332492432	3.58766729083	1.88116509777	130.59
C	6.84047564768	6.59341103876	10.8517387746	130.59
H	0.896668554629	2.04651163766	15.3880678467	29.00
H	3.31126496937	8.13457510779	6.41750258572	29.00
H	5.10460207863	3.044035943	2.55307109115	29.00
H	7.51919849337	7.13705080246	11.523644768	29.00
H	1.83346396334	0.536099146825	15.6021001775	28.22
H	2.37446956066	9.64498759863	6.63152650062	28.22
H	6.04139748734	4.55444001797	2.33904717625	28.22
H	6.58240308466	5.62663831162	11.3096208531	28.22
56
Lattice="14.661090654 0.0 0.0 0.0 8.84745507152 0.0 0.0 0.0 7.67494900755" Properties=species:S:1:pos:R:3:CS:R:1 ENERGY=-2297.52004111 Natoms=56 NAME=ACOTHI
S	8.06217773391	1.51431473147	3.62693391144	152.14
S	0.731632406907	2.90940547374	4.04801509611	152.14
S	6.59891292009	5.93804959777	0.210533261791	152.14
S	13.9294582471	7.33314034005	7.46441574576	152.14
S	7.39045054341	2.90471392473	2.33693386698	253.83
S	14.7209958704	1.51902094157	5.33800047949	253.83
S	7.27064011059	7.32843412995	1.50053330626	253.83
S	-0.0599052164122	5.94274114678	6.1744157013	253.83
S	5.30161165248	2.72184614101	2.17445966035	245.95
S	12.6321569795	1.70187406421	5.50048934721	245.95
S	9.35947900152	7.14556634622	1.66302217397	245.95
S	2.02893367452	6.12560893051	6.01192683358	245.95
S	4.48152888566	3.76193323418	3.72360914321	257.10
S	11.8120742127	0.661801632122	3.95133986434	257.10
S	10.1795617683	8.18565343939	7.78880703757	257.10
S	2.84901644134	5.08552183733	-0.113858030019	257.10
S	4.22391886178	2.44139413789	5.29988164379	261.03
S	11.5544641888	1.98234072842	2.37506736377	261.03
S	10.4371717922	6.8651143431	6.21254919809	261.03
S	3.10662646522	6.40606093363	1.46239980946	261.03
S	5.64767203628	2.89934796555	6.69520696351	244.38
S	12.9782173633	1.52437223966	0.979742044044	244.38
S	9.01341861772	7.32308283186	4.81720921728	244.38
S	1.68287329072	5.94810710596	2.85773979028	244.38
S	7.21825603368	1.5668160971	6.47836943274	173.96
S	14.5488013607	2.85690410811	1.19657957482	173.96
S	7.44283462032	5.99055096341	5.03404674805	173.96
S	0.112289293319	7.28063897441	2.64088759841	173.96
N	8.21548875888	2.17761179484	5.24842121559	111.70
N	0.884943431875	2.24610841037	2.42652779196	111.70
N	6.44560189512	6.60134666114	6.26399496519	111.70
N	13.7761472221	6.66984327668	1.41095404236	111.70
O	9.87068191044	3.58278936748	4.52797522085	-198.88
O	2.54013658344	0.840930837732	3.1469737867	-198.88
O	4.79040874356	8.00652423378	6.98444095993	-198.88
O	12.1209540706	5.26466570404	0.690508047622	-198.88
C	9.28887118893	3.09486827052	5.48153255699	-14.07
C	1.95832586193	1.3288519347	2.19340178947	-14.07
C	5.37221946507	7.51860313682	6.03088362379	-14.07
C	12.7027647921	5.752586801	1.64406538376	-14.07
C	9.63974041046	3.36029265572	6.91658943238	145.25
C	2.30919508346	1.0634275495	0.758359575169	145.25
C	5.02135024354	7.78402752202	4.5958267484	145.25
C	12.3518955705	5.4871624158	3.07910759806	145.25
H	9.69389847933	2.42514964944	7.49623031248	27.78
H	2.36335315233	1.99858521686	0.178718695072	27.78
H	4.96719217467	6.84886985465	4.01620052939	27.78
H	12.2977375017	6.42230542208	3.65874847816	27.78
H	10.595790132	3.89051099922	6.94904908709	28.24
H	3.26524480501	0.533223867086	0.72588525937	28.24
H	4.06530052199	8.31423120443	4.56336709369	28.24
H	11.395845849	4.9569440723	3.11158191386	28.24
H	8.87190977073	3.99244956253	7.38634543803	28.30
H	1.54136444373	0.431285303769	0.288603569524	28.30
H	5.78918088327	8.41616976775	4.12607074276	28.30
H	13.1197262103	4.85500550898	3.5488782648	28.30
32
Lattice="3.780038576 0.0 0.0 0.0 10.1791033397 0.0 -0.314937693998 0.0 10.1342116015" Properties=species:S:1:pos:R:3:CS:R:1 ENERGY=-799.11830549 Natoms=32 NAME=AMTHTZ
S	3.57740582809	6.96294823819	5.28222968614	-85.12
S	1.62024171487	1.87339467834	9.91908582612	-85.17
S	-0.112308726132	3.21615510146	4.85198191538	-85.12
S	1.84485916713	8.30570866131	0.215125775399	-85.17
C	2.75578798333	8.47204169877	5.54870728559	2.01
C	2.44185955963	3.38249191896	9.65260822667	2.01
C	0.709309118632	1.70706164088	4.58550053589	2.01
C	1.02323754233	6.79661142069	0.481603374852	2.01
N	1.65168029571	8.49723187584	4.85951553226	-74.19
N	3.86090872129	3.40767831599	0.207588378478	-74.20
N	1.8134205863	1.68187146381	5.27469228922	-74.19
N	-0.395811619332	6.77142502366	9.92662322304	-74.20
N	1.5015598437	7.34953278336	4.08790003778	-234.12
N	4.0110291733	2.25997922351	0.979203872958	-234.14
N	1.96353725826	2.8295705563	6.0463077837	-234.12
N	-0.5459282913	7.91912411614	9.15500772856	-234.14
N	2.43491940881	6.4765593345	4.21844367001	-106.35
N	3.07766960819	1.38700955469	0.848660240736	-106.34
N	1.03018147319	3.70254400515	5.91576415148	-106.35
N	0.387431273809	8.79209378496	9.28555136079	-106.34
N	3.22761617843	9.43792471579	6.32234510071	155.62
N	1.97003136454	4.34837115594	8.87897041155	155.61
N	0.237480923537	0.741182403905	3.81186650081	155.62
N	1.49506573743	5.83073218371	1.25524118997	155.61
H	2.80424429784	10.3644953316	6.22310396794	21.03
H	2.39340324513	5.27494555181	8.97821532437	21.03
H	0.660852804126	-0.18539199196	3.91110763358	21.03
H	1.07169385684	4.90415778785	1.15599627716	21.03
H	4.15036517525	9.33709596681	6.70119568695	25.16
H	1.04728236771	4.24754240696	8.50012360535	25.16
H	-0.685268073289	0.842007372843	3.43301591457	25.16
H	2.41781851429	5.93156093269	1.63408799617	25.16
116
Lattice="11.396843824 0.0 0.0 0.0 7.41083188709 0.0 -2.13085649293 0.0 12.8784563148" Properties=species:S:1:pos:R:3:CS:R:1 ENERGY=-2770.89754231 Natoms=116 NAME=AXOBAS
C	3.4641732519	1.65646286876	9.52884413703	69.99
C	-0.961984793496	5.36190730441	9.78884033518	69.98
C	5.80181407917	5.75435762149	3.34961217778	69.99
C	10.2279607277	2.04892458268	3.08961597962	69.98
H	2.70746840936	2.44652627317	9.66077400113	23.58
H	-0.205279950958	6.15193651829	9.6569674553	23.58
H	6.55850752487	4.96430561392	3.21768231367	23.58
H	9.47126728203	1.2588953688	3.22148885951	23.58
O	4.22558499094	2.2935692322	7.05990027206	41.20
O	-1.7234649136	5.99891109626	12.2578297875	41.16
O	5.04040234013	5.11725125804	5.81855604275	41.20
O	10.9894522447	1.41192079082	0.620615130436	41.16
O	4.83051806427	3.78680650371	8.88848967309	44.66
O	9.06850282129	0.0815102270292	10.4292517833	44.49
O	4.4354692668	3.62401398653	3.98996664172	44.66
O	0.197484509782	7.32932166006	2.44920453147	44.49
O	5.99987982799	1.63406807064	8.61427021384	56.78
O	7.89922083548	5.33956949051	10.7033458773	56.97
O	3.26610750308	5.77676381645	4.26418610097	56.78
O	1.36676649559	2.07125099973	2.1751104375	56.97
O	2.98680505149	1.0969576149	12.051421549	40.19
O	-0.484616593084	4.8024134474	7.26616035159	40.07
O	6.27918227958	6.31387427218	0.827034765776	40.19
O	9.75060392415	2.60840704284	5.61229596322	40.07
O	4.84173255859	2.5823652547	11.5543368088	39.43
O	9.05724273959	6.28780969036	7.76339325078	39.41
O	4.42425477248	4.82845523554	1.324119506	39.43
O	0.208733194637	1.12301079989	5.11506306402	39.41
O	5.0698061972	0.184309758322	11.065321034	65.13
O	8.82929446627	3.88981117819	8.2523862319	65.26
O	4.19618113387	7.22652212877	1.8131352808	65.13
O	0.436692864804	3.52100931205	4.62607008291	65.26
O	3.4408211189	6.579660067	8.53810510656	54.11
O	-0.938701041564	2.87420423451	10.7794881909	54.10
O	5.82516621217	0.831171820084	4.34035120824	54.11
O	10.2046883726	4.53662765258	2.09896812391	54.10
O	1.84261891578	0.799819102724	7.62889909682	42.05
O	0.659523955251	4.5051381731	11.6887853754	42.03
O	7.42336841529	6.61100138752	5.24955721799	42.05
O	8.60646337582	2.90569371399	1.18967093941	42.03
O	1.52963879068	7.32494527203	9.88582747613	47.49
O	0.972481286658	3.61953502691	9.43181140871	47.52
O	7.73634854039	0.0858752182138	2.99262883868	47.49
O	8.29350604441	3.79129686018	3.4466449061	47.52
S	4.76119106329	2.3959014929	8.43267290435	133.95
S	9.13763607592	6.10109519799	10.885000171	133.94
S	4.50479626778	5.01493039419	4.44578341046	133.95
S	0.128339858302	1.3097366891	1.99344474694	133.94
S	4.15452566969	1.31893394206	11.1950627041	133.73
S	9.74432426321	5.02428720297	8.12267875233	133.75
S	5.11146166138	6.09189794502	1.68339361071	133.73
S	-0.478336932137	2.38654468412	4.75577756247	133.75
S	2.49328752338	0.260907945663	8.82921468836	127.86
S	0.00886674449507	3.96628400025	10.4883786091	127.86
S	6.77269980769	7.14992394142	4.04924162645	127.86
S	9.25712058658	3.44454788683	2.39007770571	127.86
N	3.40633426949	5.07993799136	11.1867771986	207.30
N	-0.904225588996	1.37455053992	8.13100984517	207.30
N	5.85965306158	2.33089389573	1.69167911617	207.30
N	10.1702015232	6.03628134716	4.74744646964	207.30
H	3.96811889211	4.20593683218	11.212727812	23.60
H	9.93086780292	0.500526587062	8.10512761285	23.60
H	5.29786843896	3.2048950549	1.66572850278	23.60
H	-0.664880471848	6.91030530003	4.77332870196	23.60
H	2.40444912577	4.85927230124	11.380569131	22.90
H	0.0976709515717	1.15389624665	7.9371951191	22.90
H	6.8615382053	2.55155958585	1.49788718379	22.90
H	9.1683163795	6.25693564044	4.94124979886	22.90
H	3.49430650697	5.52654611029	10.2588233808	24.70
H	-0.992197826474	1.82121564308	9.05894086932	24.70
H	5.77166942726	1.8842857768	2.61963293401	24.70
H	10.2581851575	5.58961624401	3.81951544549	24.70
H	3.74711129667	5.72383687373	11.9250647416	23.83
H	10.1518184141	2.01838104123	7.39268811172	23.83
H	5.5188760344	1.68699501336	0.953391573253	23.83
H	-0.885842479908	5.39245084586	5.48576820309	23.83
N	7.61254462593	2.52841259604	11.1712205068	208.54
N	6.28648765647	6.23386842854	8.14642977486	208.55
N	1.65344270514	4.88241929105	1.70723580799	208.54
N	2.9794996746	1.17696345855	4.7320151431	208.55
H	7.92110277562	3.40848827298	10.7223216223	23.95
H	5.97791810994	7.11405807391	8.59500954778	23.94
H	1.34487315861	4.00233221727	2.15613469253	23.95
H	3.28805782429	0.296773813177	4.28344676703	23.94
H	7.93675064219	1.70544650351	10.6419510796	24.96
H	5.96224744968	5.41105049498	8.67598412315	24.96
H	1.32923668888	5.70538538358	2.23650523518	24.96
H	3.30373988139	1.99976999527	4.20247219166	24.96
H	6.57178484792	2.53229891979	11.2532207981	22.25
H	7.32724743448	6.23767497438	8.06447507093	22.25
H	2.69419108631	4.8785329673	1.62523551668	22.25
H	1.93873989659	1.17314551587	4.81398124388	22.25
H	8.02425560907	2.46797513324	12.1172953063	24.72
H	5.87482226071	6.17308906043	7.2003435785	24.72
H	1.241731722	4.94285675384	0.761161008473	24.72
H	3.39115367352	1.23774282666	5.67811273631	24.72
N	0.213075392134	0.677120682115	12.3735077523	204.92
N	2.28905608205	4.38264489568	6.94427929146	204.92
N	9.05291193894	6.73369980813	0.504937165622	204.92
N	6.97693124902	3.02818699141	5.93417702334	204.92
H	-0.262195789015	1.54569694363	12.0654510638	24.06
H	2.76433866004	5.25116417297	7.25246134531	24.06
H	9.52818312009	5.86513494346	0.813005251029	24.06
H	6.50164867103	2.15965631727	5.6259949695	24.06
H	0.947465214464	0.443850082726	11.6802947267	23.96
H	1.55452949759	4.14937429629	7.63735555493	23.95
H	8.31852211661	6.96697040752	1.19816158806	23.96
H	7.71144643663	3.2614575908	5.24110075987	23.95
H	2.78659669603	0.794565157722	0.416224133296	25.84
H	1.84658501743	4.50015775234	6.02304961148	25.84
H	6.47939063504	6.61625533252	12.4622321815	25.84
H	7.41940231364	2.9106627379	6.85540670332	25.84
H	-0.498292805673	7.32447800143	12.4174767758	22.51
H	3.00039008933	3.61911334369	6.9003900459	22.51
H	9.7642687399	0.0863424888106	0.460979538993	22.51
H	6.26559724175	3.79170714656	5.97806626891	22.51
44
Lattice="8.229066508 0.0 0.0 0.0 5.62344780517 0.0 0.0 0.0 10.6940833805" Properties=species:S:1:pos:R:3:CS:R:1 ENERGY=-858.86586349 Natoms=44 NAME=AMTCAR03
S	7.77455047756	2.68559700022	0.652737784481	231.95
S	0.454516030436	2.93785080495	5.99978770378	231.95
S	3.66001722356	2.93785080495	0.652737784481	231.95
S	4.56904928444	2.68559700022	5.99978770378	231.95
S	8.10300543816	0.578643269643	2.74398222709	247.48
S	0.126061069836	5.04479630646	8.09102391733	247.42
S	3.98847218416	5.04479630646	2.74398222709	247.48
S	4.24059432384	0.578643269643	8.09102391733	247.42
N	6.57243198394	2.73967019624	3.00720537748	68.98
N	1.65663452406	2.88376937986	8.35425529679	68.97
N	2.45789872994	2.88376937986	3.00720537748	68.98
N	5.77116777806	2.73967019624	8.35425529679	68.97
H	6.06590002411	3.55865981138	2.67001937732	22.54
H	2.16316648389	2.06478799379	8.01706106755	22.54
H	1.95136677011	2.06478799379	2.67001937732	22.54
H	6.27769973789	3.55865981138	8.01706106755	22.54
H	6.35543150013	2.4218636477	3.95117805475	22.77
H	1.87363500787	3.20158415747	9.29821974499	22.77
H	2.24089824613	3.20158415747	3.95117805475	22.77
H	5.98816826187	2.4218636477	9.29821974499	22.77
N	1.87513269798	0.157059963372	0.151052744821	188.33
N	6.35393381002	5.46637961273	5.49809443506	188.33
N	5.98966595198	5.46637961273	0.151052744821	188.33
N	2.23940055602	0.157059963372	5.49809443506	188.33
H	2.49719252252	4.95077099254	0.267856114835	24.00
H	5.73187398548	0.67267681263	5.61489780507	24.00
H	6.61172577652	0.67267681263	0.267856114835	24.00
H	1.61734073148	4.95077099254	5.61489780507	24.00
H	2.4391858327	1.04337157162	0.223526133557	21.79
H	5.7898806753	4.58007623356	5.57056782379	21.79
H	6.5537190867	4.58007623356	0.223526133557	21.79
H	1.6753474213	1.04337157162	5.57056782379	21.79
H	1.16799255481	0.176636912594	0.926634034133	22.30
H	7.06107395319	5.44680266351	6.27367572437	22.30
H	5.28252580881	5.44680266351	0.926634034133	22.30
H	2.94654069919	0.176636912594	6.27367572437	22.30
H	1.3779242705	0.0832370077284	9.92950435308	22.56
H	6.8511422375	5.54020256838	4.58245443378	22.56
H	5.4924575245	5.54020256838	9.92950435308	22.56
H	2.7366089835	0.0832370077284	4.58245443378	22.56
C	7.4181002327	2.06179261358	2.21333910239	-44.62
C	0.810966275297	3.56165519159	7.56038079263	-44.62
C	3.3035669787	3.56165519159	2.21333910239	-44.62
C	4.9254995293	2.06179261358	7.56038079263	-44.62
128
Lattice="27.730143278 0.0 0.0 0.0 4.73741767761 0.0 0.0 0.0 10.7800654692" Properties=species:S:1:pos:R:3:CS:R:1 ENERGY=-3018.85036680 Natoms=128 NAME=ELEWUN
C	17.7373643066	4.50947589987	1.1400139203	17.84
C	9.99277897137	0.227941777745	6.53003278982	17.84
C	3.87229266763	0.227941777745	1.1400139203	17.84
C	23.8578506104	4.50947589987	6.53003278982	17.84
C	18.5243180427	0.905694209603	0.998506999154	34.27
C	9.20582523529	3.83172346801	6.38855359882	34.27
C	4.65924640371	3.83172346801	0.998506999154	34.27
C	23.0708968743	0.905694209603	6.38855359882	34.27
H	18.3779306163	1.56001467039	0.141229619715	22.70
H	9.35221266165	3.17740300722	5.53127621938	22.70
H	4.51285897735	3.17740300722	0.141229619715	22.70
H	23.2172843007	1.56001467039	5.53127621938	22.70
C	19.4583524587	1.22819577593	1.98472954484	30.36
C	8.27179081925	3.50922190169	7.3747761445	30.37
C	5.59328081975	3.50922190169	1.98472954484	30.36
C	22.1368624583	1.22819577593	7.3747761445	30.37
H	20.126510261	2.07374330476	1.83848076919	23.76
H	7.60363301697	2.66367437285	7.22849963871	23.76
H	6.26143862203	2.66367437285	1.83848076919	23.76
H	21.468704656	2.07374330476	7.22849963871	23.76
C	19.580337359	5.14543900581	3.11329091596	27.20
C	8.14980591897	-0.407993598049	8.50330978548	27.20
C	5.71526572003	-0.407993598049	3.11329091596	27.20
C	22.014877558	5.14543900581	8.50330978548	27.20
H	20.3272487682	5.35510661913	3.87758912499	22.52
H	7.40289450978	-0.617688941517	9.26760799451	22.52
H	6.46217712922	-0.617688941517	3.87758912499	22.52
H	21.2679661488	5.35510661913	9.26760799451	22.52
C	18.7239750743	4.06266010123	3.24900223717	26.12
C	9.00616820369	0.674757576384	8.63902110668	26.12
C	4.85890343531	0.674757576384	3.24900223717	26.12
C	22.8712398427	4.06266010123	8.63902110668	26.12
C	17.8055804591	3.6815924723	2.26372251636	37.02
C	9.92456281891	1.05582520531	7.65376911602	37.02
C	3.94050882009	1.05582520531	2.26372251636	37.02
C	23.7896344579	3.6815924723	7.65376911602	37.02
H	17.1048397385	2.86554981592	2.42366998278	22.82
H	10.6253035395	1.87186786169	7.8136888523	22.82
H	3.23976809946	1.87186786169	2.42366998278	22.82
H	24.4903751785	2.86554981592	7.8136888523	22.82
C	17.1004029155	3.88005710774	6.50793186563	18.34
C	10.6297403625	0.857360569869	1.11791299611	18.34
C	3.23533127653	0.857360569869	6.50793186563	18.34
C	24.4948120015	3.88005710774	1.11791299611	18.34
C	16.0056445891	4.69657117657	6.21166301485	37.18
C	11.7244986889	0.0408465010485	0.821644145327	37.18
C	2.14057295006	0.0408465010485	6.21166301485	37.18
C	25.5895703279	4.69657117657	0.821644145327	37.18
H	16.1276572195	5.52118244722	5.51408353054	24.08
H	11.6024860585	-0.783737039466	10.9041024001	24.08
H	2.26258558048	-0.783737039466	5.51408353054	24.08
H	25.4675576975	5.52118244722	10.9041024001	24.08
C	14.7468901952	4.35382660565	6.71898598612	39.04
C	12.9832530828	0.383591071965	1.32893938645	39.04
C	0.88181855624	0.383591071965	6.71898598612	39.04
C	26.8483247218	4.35382660565	1.32893938645	39.04
H	13.8778552351	4.9839663815	6.53275034386	23.61
H	13.8522880429	-0.246548703885	1.14273147434	23.61
H	0.0127835960512	-0.246548703885	6.53275034386	23.61
H	27.7173596819	4.9839663815	1.14273147434	23.61
C	14.6072134635	3.19717459938	7.4698628058	21.66
C	13.1229298145	1.54024307823	2.07984393628	21.66
C	0.742141824549	1.54024307823	7.4698628058	21.66
C	26.9880014535	3.19717459938	2.07984393628	21.66
C	15.7007239336	2.41282749676	7.86096874659	44.26
C	12.0294193444	2.32459018085	2.47094987707	44.26
C	1.83565229457	2.32459018085	7.86096874659	44.26
C	25.8944909834	2.41282749676	2.47094987707	44.26
H	15.5925209145	1.63111475776	8.60441388787	22.56
H	12.1376223635	3.10633065	3.21436728821	22.56
H	1.7274492755	3.10633065	8.60441388787	22.56
H	26.0026940025	1.63111475776	3.21436728821	22.56
C	16.945862827	2.84225649557	7.42208376893	19.89
C	10.784280451	1.89516118205	2.03206489941	19.89
C	3.08079118804	1.89516118205	7.42208376893	19.89
C	24.64935209	2.84225649557	2.03206489941	19.89
S	18.8256892399	3.07114109818	4.70544482241	112.52
S	8.90445403814	1.66627657943	10.0954914221	112.51
S	4.96061760086	1.66627657943	4.70544482241	112.52
S	22.7695256771	3.07114109818	10.0954914221	112.51
N	16.6976225844	4.25616104102	0.139676731691	-141.02
N	11.0325206936	0.48125663659	5.52969560121	-141.01
N	2.83255094542	0.48125663659	0.139676731691	-141.02
N	24.8975923326	4.25616104102	5.52969560121	-141.01
N	18.1739199523	2.31233345752	8.06065350834	-149.19
N	9.55622332575	2.42508422009	2.67063463882	-149.19
N	4.30884831325	2.42508422009	8.06065350834	-149.19
N	23.4212949647	2.31233345752	2.67063463882	-149.19
N	13.287730056	2.83998262382	7.99781700367	-137.62
N	14.442413222	1.8974350538	2.60779813415	-137.63
N	27.152801695	1.8974350538	7.99781700367	-137.62
N	0.577341583048	2.83998262382	2.60779813415	-137.63
O	16.6126019651	0.310411223854	9.97214774477	-319.32
O	11.1175413129	4.42700645376	4.58212887526	-319.29
O	2.74753032613	4.42700645376	9.97214774477	-319.32
O	24.9826129519	0.310411223854	4.58212887526	-319.29
O	15.9493523982	3.28261117082	0.310300303281	-322.41
O	11.7807908798	1.45480650679	5.70034690294	-322.39
O	2.0842807592	1.45480650679	0.310300303281	-322.41
O	25.6458625188	3.28261117082	5.70034690294	-322.39
O	20.2123627846	2.83282824685	5.0010758799	42.92
O	7.51778049338	1.90458943076	10.3910947494	42.92
O	6.34729114562	1.90458943076	5.0010758799	42.92
O	21.3828521324	2.83282824685	10.3910947494	42.92
O	17.8476748166	2.01656374932	4.60597679848	57.78
O	9.88246846141	2.72088165844	9.99599566799	57.77
O	3.98260317759	2.72088165844	4.60597679848	57.78
O	23.7475401004	2.01656374932	9.99599566799	57.77
O	18.3504777745	4.09072300623	5.94406713221	25.48
O	9.3796655035	0.646694671386	0.554048262694	25.48
O	4.4854061355	0.646694671386	5.94406713221	25.48
O	23.2447371425	4.09072300623	0.554048262694	25.48
O	18.730685769	1.3231992468	7.59900208304	-411.46
O	8.99945750901	3.41421843082	2.20898321353	-411.40
O	4.86561412999	3.41421843082	7.59900208304	-411.46
O	22.864529148	1.3231992468	2.20898321353	-411.40
O	18.5565404692	2.97755186462	9.02433144753	-410.74
O	9.1736028088	1.75989354314	3.63431257801	-410.78
O	4.6914688302	1.75989354314	9.02433144753	-410.74
O	23.0386744478	2.97755186462	3.63431257801	-410.78
O	12.3406070123	3.59549037743	7.73712592671	-324.22
O	15.3895362657	1.14192730019	2.34710705719	-324.17
O	26.2056786513	1.14192730019	7.73712592671	-324.22
O	1.52446462671	3.59549037743	2.34710705719	-324.17
O	13.2028758175	1.81660168614	8.69262347364	-327.99
O	14.5272674605	2.92081599147	3.30260460412	-328.04
O	27.0679474565	2.92081599147	8.69262347364	-327.99
O	0.662195821479	1.81660168614	3.30260460412	-328.04
56
Lattice="8.37903612 0.0 0.0 -2.33864763434 12.6923963339 0.0 -0.938988303752 -1.45577373549 7.95868501497" Properties=species:S:1:pos:R:3:CS:R:1 ENERGY=-1521.52253576 Natoms=56 NAME=BDTOLE02
S	1.72154838218	9.40450445555	7.0215484782	244.42
S	3.37984342069	1.83211814282	0.937136536769	244.42
S	6.05572212175	-0.055511114295	1.18188818183	239.91
S	-0.954330318887	11.2921337127	6.77679683313	239.91
S	3.58114138444	5.23481957404	5.90243603498	237.59
S	1.52025041843	6.00180302432	2.05624897999	237.59
S	1.79483981112	3.55852636595	4.24031177696	240.89
S	3.30655199175	7.67809623242	3.71836485897	240.89
S	6.04373172107	6.68334544329	1.84880080373	234.80
S	-0.9423399182	4.55327715508	6.10988421123	234.80
S	7.00459768813	4.20563932549	0.542668274312	235.35
S	-1.90320588526	7.03098327287	7.41600836162	235.35
S	-1.99341458813	9.95928043705	3.50646741453	231.27
S	7.094806391	1.27734216131	4.45221760043	231.27
S	1.48198336047	-0.0140600226094	3.22250188043	229.56
S	3.6194084424	11.250682621	4.73618313454	229.56
C	3.35149714149	9.12802977973	7.57197573996	40.48
C	1.74989466137	2.10859281863	0.386700895974	40.48
C	4.77266545781	11.3955226393	0.569690665799	43.37
C	0.32872634506	-0.15890004098	7.38899434917	43.37
C	2.40680271414	12.3018159442	0.0504334184063	59.19
C	2.69459746776	-1.06519334579	7.90825159656	59.19
C	3.06530278378	3.70494164311	6.55900054727	44.38
C	2.03608901909	7.53168095526	1.39967608867	44.38
C	2.25712799193	2.94178741233	5.80332041671	41.87
C	2.84426381093	8.29483518603	2.15535621922	41.87
C	2.60385250658	5.11385142958	4.43410212434	58.76
C	2.49753929629	6.12277116879	3.52458289063	58.76
C	5.76162633298	5.17599874048	2.67192379602	40.62
C	-0.660226151075	6.06062385788	5.28675283991	40.62