17
{"Lattice": "14.0 0.0 0.0 0.0 14.0 0.0 0.0 0.0 14.0", "Properties": "species:S:1:pos:R:3", "cutoff": -1.0, "dft_formation_energy_per_atom_in_eV": -4.254828570313568, "nneightol": 1.2, "smiles": "[H]c1c(OC([H])([H])[H])c(C([H])([H])[H])c([H])n1[H]"}
C +6.2314 +9.2548 +5.8925
O +6.2877 +7.8452 +5.8996
C +6.9575 +7.2951 +6.9486
C +7.5903 +7.9138 +8.0065
N +8.1138 +6.9073 +8.7930
C +7.8198 +5.6876 +8.2461
C +7.0968 +5.8817 +7.0903
C +6.5557 +4.8457 +6.1554
H +7.2378 +9.6954 +5.8476
H +5.6699 +9.5470 +5.0031
H +5.7206 +9.6395 +6.7870
H +7.7121 +8.9509 +8.2654
H +8.6333 +7.0536 +9.6386
H +8.1436 +4.7719 +8.7154
H +5.4649 +4.9094 +6.0672
H +6.9595 +4.9629 +5.1430
H +6.8053 +3.8382 +6.5007
20
{"Lattice": "14.0 0.0 0.0 0.0 14.0 0.0 0.0 0.0 14.0", "Properties": "species:S:1:pos:R:3", "cutoff": -1.0, "dft_formation_energy_per_atom_in_eV": -4.137885838832728, "nneightol": 1.2, "smiles": "[H]C#CC([H])([H])[C@]1([H])N2C([H])([H])C1(C([H])([H])[H])C2([H])[H]"}
C +7.8951 +8.7293 +6.6956
C +7.8236 +7.2245 +6.6327
C +8.2534 +6.2642 +5.4944
N +7.7240 +5.2739 +6.5475
C +8.4975 +6.1640 +7.5388
C +6.5766 +6.2948 +6.6958
C +5.6641 +6.1667 +7.9187
C +4.6820 +7.2447 +7.9622
C +3.8855 +8.1450 +7.9725
H +8.9312 +9.0770 +6.6202
H +7.3259 +9.1818 +5.8767
H +7.4781 +9.1037 +7.6360
H +7.6735 +6.2681 +4.5665
H +9.3228 +6.1506 +5.2965
H +9.5823 +6.0483 +7.4599
H +8.1842 +6.0664 +8.5794
H +5.9466 +6.3130 +5.7996
H +5.1512 +5.1980 +7.8571
H +6.2277 +6.1525 +8.8565
H +3.1747 +8.9335 +7.9934
12
{"Lattice": "14.0 0.0 0.0 0.0 14.0 0.0 0.0 0.0 14.0", "Properties": "species:S:1:pos:R:3", "cutoff": -1.0, "dft_formation_energy_per_atom_in_eV": -4.658261684066589, "nneightol": 1.2, "smiles": "[H]c1noc2c1n([H])c(=O)n2[H]"}
O +6.8596 +4.0328 +6.9857
C +6.8780 +5.2390 +6.9919
N +5.7477 +6.1037 +7.0118
C +6.1988 +7.3925 +7.0130
C +7.5588 +7.4209 +6.9948
N +7.9838 +6.0913 +6.9815
C +7.8509 +8.7973 +6.9982
N +6.7444 +9.5259 +7.0174
O +5.6544 +8.5960 +7.0269
H +4.8050 +5.7552 +7.0229
H +8.9205 +5.7294 +6.9677
H +8.7982 +9.3159 +6.9882
14
{"Lattice": "14.0 0.0 0.0 0.0 14.0 0.0 0.0 0.0 14.0", "Properties": "species:S:1:pos:R:3", "cutoff": -1.0, "dft_formation_energy_per_atom_in_eV": -4.480779931956823, "nneightol": 1.2, "smiles": "[H]O[C@]12[C@@]3([H])O[C@@]3([H])[C@@]1([H])[C@@]2([H])C#N"}
O +6.9599 +9.2016 +7.0100
C +7.0383 +7.8329 +6.9583
C +7.6380 +7.0586 +5.7287
O +7.8461 +5.6962 +6.0969
C +6.5198 +6.1215 +5.7636
C +5.8862 +6.8561 +6.9850
C +6.8346 +6.9482 +8.1792
C +7.6971 +5.9256 +8.7138
N +8.3676 +5.1555 +9.2575
H +7.8000 +9.5484 +7.3347
H +8.2189 +7.4830 +4.9189
H +5.9937 +5.5874 +4.9833
H +4.8283 +7.0480 +7.1015
H +6.3714 +7.5371 +8.9686
20
{"Lattice": "14.0 0.0 0.0 0.0 14.0 0.0 0.0 0.0 14.0", "Properties": "species:S:1:pos:R:3", "cutoff": -1.0, "dft_formation_energy_per_atom_in_eV": -4.135015097660129, "nneightol": 1.2, "smiles": "[H]O[C@]12C([H])([H])[C@@]1([H])C([H])([H])C([H])([H])[C@@]1([H])N([H])[C@]12[H]"}
O +6.9986 +9.6061 +6.8599
C +7.0255 +8.2082 +6.7153
C +6.4495 +7.6121 +5.4565
C +5.6853 +7.5268 +6.7658
C +5.5423 +6.2234 +7.5310
C +6.8069 +5.3388 +7.4878
C +8.0691 +6.1140 +7.8450
N +8.9560 +6.5003 +6.7282
C +8.1771 +7.5385 +7.4260
H +7.6643 +9.9727 +6.2670
H +6.0784 +8.3173 +4.7209
H +6.9281 +6.7296 +5.0496
H +4.8422 +8.2059 +6.8501
H +5.3054 +6.4611 +8.5769
H +4.6900 +5.6527 +7.1429
H +6.6780 +4.4982 +8.1769
H +6.9293 +4.9066 +6.4898
H +8.5456 +5.8445 +8.7844
H +9.9238 +6.5220 +7.0384
H +8.7046 +8.2212 +8.0879
13
{"Lattice": "14.0 0.0 0.0 0.0 14.0 0.0 0.0 0.0 14.0", "Properties": "species:S:1:pos:R:3", "cutoff": -1.0, "dft_formation_energy_per_atom_in_eV": -4.2297487766604185, "nneightol": 1.2, "smiles": "[H]C#CC1(O[H])C([H])([H])OC1([H])[H]"}
O +6.9828 +8.7645 +6.8798
C +6.9766 +7.3547 +6.9688
C +7.0934 +6.7577 +8.4076
O +5.7835 +6.1719 +8.3158
C +5.5297 +6.8018 +7.0484
C +7.8484 +6.7436 +5.9766
C +8.6007 +6.2683 +5.1680
H +7.8750 +9.0479 +6.6530
H +7.8745 +6.0077 +8.5686
H +7.1521 +7.5433 +9.1712
H +4.7953 +7.6131 +7.1183
H +5.2340 +6.0861 +6.2755
H +9.2541 +5.8393 +4.4484
18
{"Lattice": "14.0 0.0 0.0 0.0 14.0 0.0 0.0 0.0 14.0", "Properties": "species:S:1:pos:R:3", "cutoff": -1.0, "dft_formation_energy_per_atom_in_eV": -4.254172096349367, "nneightol": 1.2, "smiles": "[H]C(=O)[C@@]1([H])C([H])([H])[C@@]12C([H])([H])N1C([H])([H])[C@]12[H]"}
O +5.4815 +4.4717 +5.3023
C +5.5822 +5.6159 +5.6718
C +6.8351 +6.3976 +5.6817
C +6.7414 +7.9132 +5.4977
C +7.0796 +7.3715 +6.8315
C +6.3209 +7.5890 +8.1493
N +7.6083 +7.8806 +8.8793
C +8.4224 +6.6586 +8.7583
C +8.3643 +7.5657 +7.5935
H +4.6938 +6.1793 +6.0472
H +7.6988 +5.8846 +5.2715
H +7.5208 +8.3795 +4.9045
H +5.7503 +8.3340 +5.3504
H +5.6820 +8.4752 +8.1450
H +5.7665 +6.7423 +8.5676
H +9.3171 +6.6877 +9.3725
H +7.9272 +5.6905 +8.7147
H +9.2078 +8.1631 +7.2613
20
{"Lattice": "14.0 0.0 0.0 0.0 14.0 0.0 0.0 0.0 14.0", "Properties": "species:S:1:pos:R:3", "cutoff": -1.0, "dft_formation_energy_per_atom_in_eV": -4.116590261339112, "nneightol": 1.2, "smiles": "[H]C1([H])N([C@]2([H])C([H])([H])[C@]3([H])O[C@]3([H])C2([H])[H])C1([H])[H]"}
C +8.7503 +7.7231 +5.3111
C +8.0394 +6.5523 +4.7289
N +7.3796 +7.4128 +5.7065
C +7.1993 +6.8584 +7.0414
C +7.0946 +7.9715 +8.1220
C +6.0239 +7.4909 +9.0863
O +4.6997 +7.6226 +8.5567
C +5.3207 +6.3328 +8.5104
C +5.9020 +6.0076 +7.1453
H +9.5484 +7.5151 +6.0225
H +8.8817 +8.6340 +4.7345
H +7.6419 +6.5921 +3.7190
H +8.3638 +5.5641 +5.0522
H +8.0523 +6.2074 +7.3089
H +8.0513 +8.1360 +8.6265
H +6.7870 +8.9150 +7.6611
H +6.1145 +7.6619 +10.1565
H +4.8415 +5.5654 +9.1139
H +5.1980 +6.2982 +6.3597
H +6.1100 +4.9390 +7.0366
15
{"Lattice": "14.0 0.0 0.0 0.0 14.0 0.0 0.0 0.0 14.0", "Properties": "species:S:1:pos:R:3", "cutoff": -1.0, "dft_formation_energy_per_atom_in_eV": -4.2705205510990965, "nneightol": 1.2, "smiles": "[H]C(=O)[C@]([H])(OC([H])([H])C#N)C([H])([H])[H]"}
C +7.8605 +8.4618 +6.8566
C +7.7308 +6.9432 +6.7657
O +6.3909 +6.4675 +6.7550
C +5.7317 +6.5594 +7.9950
C +4.4555 +5.8430 +7.9089
N +3.4443 +5.2875 +7.8714
C +8.3625 +6.3886 +5.4892
O +9.3623 +6.8337 +4.9940
H +8.8995 +8.7366 +6.6607
H +7.2275 +8.9391 +6.1033
H +7.5811 +8.8378 +7.8442
H +8.2779 +6.4730 +7.6044
H +6.3323 +6.1102 +8.8028
H +5.5259 +7.6014 +8.2807
H +7.8174 +5.5172 +5.0682
25
{"Lattice": "14.0 0.0 0.0 0.0 14.0 0.0 0.0 0.0 14.0", "Properties": "species:S:1:pos:R:3", "cutoff": -1.0, "dft_formation_energy_per_atom_in_eV": -3.874119229142889, "nneightol": 1.2, "smiles": "[H]OC([H])([H])C([H])([H])C([H])([H])C([H])([H])[C@@]([H])(OC([H])([H])[H])C([H])([H])[H]"}
C +5.1625 +9.7519 +7.0463
O +5.4204 +8.3729 +6.9416
C +6.0021 +7.7798 +8.0992
C +4.9663 +7.5692 +9.2075
C +6.6347 +6.4619 +7.6491
C +7.7546 +6.6372 +6.6188
C +8.3571 +5.3066 +6.1599
C +9.4672 +5.4815 +5.1325
O +9.9544 +4.1931 +4.7846
H +6.0706 +10.3175 +7.3099
H +4.8118 +10.0895 +6.0674
H +4.3866 +9.9863 +7.7900
H +6.7986 +8.4467 +8.4754
H +4.1669 +6.9079 +8.8580
H +5.4330 +7.1140 +10.0869
H +4.5145 +8.5134 +9.5251
H +7.0199 +5.9409 +8.5347
H +5.8424 +5.8274 +7.2309
H +7.3554 +7.1862 +5.7589
H +8.5453 +7.2686 +7.0489
H +8.7636 +4.7556 +7.0174
H +7.5780 +4.6698 +5.7229
H +9.0746 +6.0111 +4.2488
H +10.2696 +6.1089 +5.5554
H +10.6497 +4.3021 +4.1297
19
{"Lattice": "14.0 0.0 0.0 0.0 14.0 0.0 0.0 0.0 14.0", "Properties": "species:S:1:pos:R:3", "cutoff": -1.0, "dft_formation_energy_per_atom_in_eV": -4.18434935962653, "nneightol": 1.2, "smiles": "[H]C1=C([H])[C@@]23C([H])([H])[C@]1([H])[C@@]2([H])O[C@]3([H])C([H])([H])[H]"}
C +5.4078 +8.7640 +6.0300
C +5.8278 +7.3151 +6.1670
O +6.9704 +6.9695 +5.2628
C +7.8475 +7.1500 +6.4185
C +8.7215 +6.3297 +7.4654
C +7.7887 +7.1552 +8.5077
C +6.7249 +6.8473 +7.3577
C +6.7419 +5.3063 +7.4061
C +8.0292 +4.9772 +7.4885
H +6.2206 +9.4514 +6.2787
H +5.0924 +8.9658 +5.0022
H +4.5635 +8.9730 +6.6955
H +4.9895 +6.6415 +5.9596
H +8.2021 +8.1869 +6.4064
H +9.8095 +6.3886 +7.5123
H +7.6351 +6.6735 +9.4753
H +8.0646 +8.2066 +8.6241
H +5.8553 +4.6872 +7.3881
H +8.5076 +4.0110 +7.5539
19
{"Lattice": "14.0 0.0 0.0 0.0 14.0 0.0 0.0 0.0 14.0", "Properties": "species:S:1:pos:R:3", "cutoff": -1.0, "dft_formation_energy_per_atom_in_eV": -4.263336881703956, "nneightol": 1.2, "smiles": "[H]C#CC([H])([H])C1([C@]2([H])OC2([H])[H])C([H])([H])C1([H])[H]"}
C +5.8088 +3.7867 +6.6117
C +5.7897 +4.9885 +6.5908
C +5.7708 +6.4454 +6.5700
C +7.1266 +7.1176 +6.8151
C +8.1117 +6.5216 +7.7837
C +8.3935 +6.4802 +6.3002
C +7.0230 +8.6144 +6.7324
C +6.8396 +9.4658 +7.9172
O +8.1053 +9.3803 +7.2534
H +5.8162 +2.7249 +6.6268
H +5.3774 +6.7810 +5.5997
H +5.0554 +6.8036 +7.3234
H +8.6976 +7.2105 +8.3807
H +7.8374 +5.5927 +8.2704
H +8.3104 +5.5247 +5.7948
H +9.1633 +7.1416 +5.9187
H +6.6376 +8.9914 +5.7814
H +6.3326 +10.4251 +7.8272
H +6.8032 +9.0038 +8.9023
21
{"Lattice": "14.0 0.0 0.0 0.0 14.0 0.0 0.0 0.0 14.0", "Properties": "species:S:1:pos:R:3", "cutoff": -1.0, "dft_formation_energy_per_atom_in_eV": -4.222199281415629, "nneightol": 1.2, "smiles": "[H]C([H])([H])C1=C(C([H])([H])[H])[C@@]2([H])C([H])([H])O[C@@]2([H])C1([H])[H]"}
C +7.5481 +9.3866 +7.2890
C +7.4594 +7.8929 +7.2401
C +6.3640 +7.1224 +7.3380
C +4.9387 +7.5459 +7.5223
C +6.6983 +5.6558 +7.2184
C +6.5716 +5.0556 +5.7965
O +7.9787 +5.2533 +5.5501
C +8.2185 +5.6366 +6.9263
C +8.7258 +7.0735 +7.0706
H +8.2204 +9.7123 +8.0936
H +7.9690 +9.7839 +6.3563
H +6.5786 +9.8642 +7.4487
H +4.8242 +8.6306 +7.5809
H +4.3102 +7.1891 +6.6958
H +4.5172 +7.1139 +8.4395
H +6.2996 +5.0421 +8.0314
H +6.3001 +3.9913 +5.7710
H +5.9452 +5.6043 +5.0826
H +8.8346 +4.8906 +7.4401
H +9.2973 +7.3605 +6.1786
H +9.4005 +7.1945 +7.9304
18
{"Lattice": "14.0 0.0 0.0 0.0 14.0 0.0 0.0 0.0 14.0", "Properties": "species:S:1:pos:R:3", "cutoff": -1.0, "dft_formation_energy_per_atom_in_eV": -4.3318863319581045, "nneightol": 1.2, "smiles": "[H]OC([H])([H])c1c([H])c([H])c2n1C([H])([H])C2([H])[H]"}
O +9.1230 +8.9824 +8.1519
C +8.6829 +8.5274 +6.8695
C +7.3059 +7.9566 +6.8580
C +6.0531 +8.5651 +6.8542
C +5.0230 +7.5767 +6.9153
C +5.6931 +6.3746 +6.9786
C +5.8754 +4.8660 +6.9240
C +7.4165 +5.1939 +6.8484
N +7.0314 +6.6126 +6.9609
H +8.8453 +8.3248 +8.7973
H +8.7278 +9.4069 +6.2203
H +9.3886 +7.7861 +6.4604
H +5.8989 +9.6344 +6.8251
H +3.9590 +7.7527 +6.9097
H +5.5730 +4.3058 +7.8129
H +5.4792 +4.3643 +6.0374
H +8.0290 +4.8286 +7.6776
H +7.8951 +4.9411 +5.8982
18
{"Lattice": "14.0 0.0 0.0 0.0 14.0 0.0 0.0 0.0 14.0", "Properties": "species:S:1:pos:R:3", "cutoff": -1.0, "dft_formation_energy_per_atom_in_eV": -4.364579312666512, "nneightol": 1.2, "smiles": "[H]C1([H])C([H])([H])[C@]([H])(C([H])([H])[H])[C@]2([H])O[C@]12C#N"}
C +6.2787 +9.2023 +6.9334
C +6.2618 +7.6724 +6.9035
C +7.0306 +7.0549 +5.7053
C +7.5119 +5.6608 +6.1693
C +7.6638 +5.8264 +7.6741
O +8.3536 +7.0263 +8.0591
C +6.9211 +7.0261 +8.1095
C +7.8700 +4.6754 +8.5195
N +8.0260 +3.7297 +9.1657
H +7.3053 +9.5723 +7.0191
H +5.8444 +9.6142 +6.0172
H +5.7048 +9.5929 +7.7798
H +5.2199 +7.3230 +6.8901
H +6.4135 +6.9996 +4.8058
H +7.8951 +7.6816 +5.4736
H +6.7619 +4.8852 +5.9781
H +8.4434 +5.3471 +5.6910
H +6.4943 +7.1099 +9.1059
15
{"Lattice": "14.0 0.0 0.0 0.0 14.0 0.0 0.0 0.0 14.0", "Properties": "species:S:1:pos:R:3", "cutoff": -1.0, "dft_formation_energy_per_atom_in_eV": -4.141891039681194, "nneightol": 1.2, "smiles": "[H]C1=C([H])[C@@]([H])(OC([H])([H])[H])OC1([H])[H]"}
C +8.2924 +9.0349 +7.2265
O +8.2357 +7.6229 +7.3154
C +6.9527 +7.1313 +7.6037
O +6.0364 +7.3305 +6.5364
C +5.7656 +6.0912 +5.8873
C +6.3845 +5.0477 +6.7728
C +7.0367 +5.6370 +7.7665
H +9.3374 +9.3037 +7.0569
H +7.6816 +9.4101 +6.3966
H +7.9486 +9.5098 +8.1585
H +6.5518 +7.6720 +8.4777
H +4.6772 +5.9781 +5.7888
H +6.1915 +6.0747 +4.8719
H +6.3013 +3.9852 +6.5829
H +7.6066 +5.1708 +8.5581
21
{"Lattice": "14.0 0.0 0.0 0.0 14.0 0.0 0.0 0.0 14.0", "Properties": "species:S:1:pos:R:3", "cutoff": -1.0, "dft_formation_energy_per_atom_in_eV": -4.187766499062523, "nneightol": 1.2, "smiles": "[H]C(=O)[C@@]1([H])C([H])([H])C([H])([H])[C@@]1([H])C1([H])C([H])([H])C1([H])[H]"}
O +6.0429 +4.2899 +5.6040
C +6.0701 +5.4940 +5.6470
C +7.3211 +6.3264 +5.6776
C +7.2169 +7.5918 +4.7644
C +6.8655 +8.4497 +6.0058
C +7.4063 +7.3088 +6.9127
C +6.7028 +6.9760 +8.1994
C +7.3887 +6.1315 +9.2462
C +7.1638 +7.6007 +9.4953
H +5.1196 +6.0802 +5.6532
H +8.1764 +5.6644 +5.5301
H +8.1895 +7.8466 +4.3376
H +6.4842 +7.5548 +3.9539
H +7.3364 +9.4312 +6.0973
H +5.7847 +8.5771 +6.1231
H +8.4689 +7.4776 +7.1210
H +5.6291 +6.8312 +8.1084
H +6.7925 +5.4149 +9.7996
H +8.4018 +5.8005 +9.0428
H +8.0256 +8.2596 +9.4596
H +6.4131 +7.8932 +10.2209
20
{"Lattice": "14.0 0.0 0.0 0.0 14.0 0.0 0.0 0.0 14.0", "Properties": "species:S:1:pos:R:3", "cutoff": -1.0, "dft_formation_energy_per_atom_in_eV": -3.94871548544466, "nneightol": 1.2, "smiles": "[H]C([H])([H])O[C@@]([H])(C([H])([H])[H])[C@]1(C([H])([H])[H])OC1([H])[H]"}
C +6.8491 +9.2545 +8.2543
O +6.7050 +7.8742 +8.0134
C +7.1666 +7.4381 +6.7420
C +8.6940 +7.4382 +6.6270
C +6.5728 +6.0494 +6.5288
C +6.8968 +4.9961 +7.5632
C +5.3540 +5.9333 +5.7177
O +6.6370 +5.6221 +5.1608
H +7.9008 +9.5645 +8.3341
H +6.3718 +9.8557 +7.4642
H +6.3533 +9.4676 +9.2048
H +6.7580 +8.0951 +5.9569
H +8.9878 +6.9814 +5.6776
H +9.0951 +8.4550 +6.6487
H +9.1486 +6.8753 +7.4472
H +6.5910 +5.3397 +8.5547
H +6.3797 +4.0621 +7.3310
H +7.9711 +4.7885 +7.5906
H +4.6912 +5.0810 +5.8618
H +4.8762 +6.8282 +5.3211
13
{"Lattice": "14.0 0.0 0.0 0.0 14.0 0.0 0.0 0.0 14.0", "Properties": "species:S:1:pos:R:3", "cutoff": -1.0, "dft_formation_energy_per_atom_in_eV": -4.408805476571143, "nneightol": 1.2, "smiles": "[H]C(=O)C(=O)C(=O)N([H])C([H])([H])[H]"}
C +6.3930 +9.1393 +6.2728
N +6.5136 +7.6961 +6.3157
C +7.1803 +7.0381 +7.2836
O +7.7628 +7.5343 +8.2365
C +7.1543 +5.5142 +7.0909
O +6.5900 +4.9896 +6.1636
C +7.8994 +4.6846 +8.1628
O +7.9303 +3.4860 +8.0908
H +6.8369 +9.5439 +5.3573
H +5.3435 +9.4477 +6.3201
H +6.9239 +9.5421 +7.1364
H +6.0902 +7.1209 +5.6015
H +8.3818 +5.2632 +8.9681
20
{"Lattice": "14.0 0.0 0.0 0.0 14.0 0.0 0.0 0.0 14.0", "Properties": "species:S:1:pos:R:3", "cutoff": -1.0, "dft_formation_energy_per_atom_in_eV": -4.2208507256189005, "nneightol": 1.2, "smiles": "[H]OC([H])([H])C([H])([H])n1c([H])c([H])c([H])c1C([H])([H])[H]"}
C +7.4170 +8.8018 +5.8360
C +7.3921 +7.3091 +5.7816
C +7.3598 +6.4657 +4.6922
C +7.3647 +5.1272 +5.1717
C +7.4003 +5.1918 +6.5423
N +7.4211 +6.5183 +6.9155
C +7.3828 +6.9818 +8.2872
C +5.9553 +7.1251 +8.8205
O +6.0632 +7.5700 +10.1606
H +8.3154 +9.1904 +6.3325
H +7.4097 +9.1990 +4.8183
H +6.5508 +9.2263 +6.3596
H +7.3471 +6.7850 +3.6606
H +7.3562 +4.2246 +4.5802
H +7.4220 +4.4159 +7.2917
H +7.9288 +6.2744 +8.9180
H +7.8933 +7.9452 +8.3651
H +5.3985 +7.8387 +8.1940
H +5.4439 +6.1532 +8.7473
H +5.1780 +7.6565 +10.5251
17
{"Lattice": "14.0 0.0 0.0 0.0 14.0 0.0 0.0 0.0 14.0", "Properties": "species:S:1:pos:R:3", "cutoff": -1.0, "dft_formation_energy_per_atom_in_eV": -4.336702354389095, "nneightol": 1.2, "smiles": "[H]C([H])(C#N)C([H])([H])O[C@@]([H])(C#N)C([H])([H])[H]"}
C +5.7579 +8.7333 +6.1361
C +5.7510 +7.2004 +6.2113
O +6.4795 +6.6982 +7.3208
C +7.8782 +6.6399 +7.1281
C +8.4500 +5.9278 +8.3599
C +9.9033 +5.8143 +8.2913
N +11.0534 +5.7359 +8.2164
C +4.3747 +6.6913 +6.3406
N +3.2861 +6.3142 +6.4160
H +6.7773 +9.0995 +5.9914
H +5.1487 +9.0742 +5.2950
H +5.3543 +9.1549 +7.0593
H +6.1633 +6.7855 +5.2778
H +8.1254 +6.0774 +6.2154
H +8.3207 +7.6413 +7.0372
H +8.1692 +6.4817 +9.2615
H +8.0068 +4.9302 +8.4420
19
{"Lattice": "14.0 0.0 0.0 0.0 14.0 0.0 0.0 0.0 14.0", "Properties": "species:S:1:pos:R:3", "cutoff": -1.0, "dft_formation_energy_per_atom_in_eV": -4.265294670046739, "nneightol": 1.2, "smiles": "[H]C#C[C@@]1([H])C([H])([H])C([H])([H])[C@@]1([H])[C@]1([H])OC1([H])[H]"}
C +5.2022 +4.4882 +6.1613
C +5.3772 +5.6322 +6.4903
C +5.6047 +7.0053 +6.8880
C +5.9240 +7.3318 +8.3813
C +6.9532 +8.3858 +7.9016
C +6.9567 +7.7184 +6.4965
C +8.1070 +6.7786 +6.2310
C +9.5005 +7.1322 +6.5239
O +8.7884 +6.2144 +7.3572
H +5.0439 +3.4770 +5.8789
H +4.7702 +7.6270 +6.5459
H +5.0879 +7.6699 +8.9964
H +6.4166 +6.4881 +8.8666
H +6.5388 +9.3964 +7.8675
H +7.9040 +8.4071 +8.4352
H +6.8644 +8.3929 +5.6388
H +7.9270 +6.0614 +5.4294
H +10.3041 +6.6984 +5.9307
H +9.7291 +8.0949 +6.9796
21
{"Lattice": "14.0 0.0 0.0 0.0 14.0 0.0 0.0 0.0 14.0", "Properties": "species:S:1:pos:R:3", "cutoff": -1.0, "dft_formation_energy_per_atom_in_eV": -4.147821465321531, "nneightol": 1.2, "smiles": "[H]C([H])([H])[C@@]1([H])[C@@]2([H])O[C@]1([H])[C@@]1([H])[C@]([H])(C([H])([H])[H])[C@@]21[H]"}
C +6.6403 +9.9849 +6.8730
C +6.6080 +8.4697 +6.8425
C +7.9071 +7.7464 +6.5754
C +7.2907 +7.7315 +7.9699
C +7.1450 +6.2038 +8.1188
O +8.4583 +5.7404 +7.6311
C +7.9312 +6.2228 +6.3401
C +6.5428 +5.6902 +6.7839
C +6.3704 +4.1800 +6.6915
H +7.5820 +10.3532 +7.2931
H +6.5392 +10.4006 +5.8648
H +5.8235 +10.3833 +7.4843
H +5.6870 +8.0710 +6.4311
H +8.7998 +8.3174 +6.3464
H +7.7178 +8.2912 +8.7943
H +6.8719 +5.7973 +9.0931
H +8.4711 +5.8360 +5.4751
H +5.6537 +6.1904 +6.3962
H +7.2521 +3.6637 +7.0757
H +5.4971 +3.8544 +7.2675
H +6.2112 +3.8717 +5.6522
25
{"Lattice": "14.0 0.0 0.0 0.0 14.0 0.0 0.0 0.0 14.0", "Properties": "species:S:1:pos:R:3", "cutoff": -1.0, "dft_formation_energy_per_atom_in_eV": -3.9655048445612664, "nneightol": 1.2, "smiles": "[H]C([H])([H])C([H])(C([H])([H])[H])C([H])([H])[C@@]1([H])OC([H])([H])[C@@]1([H])C([H])([H])[H]"}
C +8.8446 +8.9240 +7.4883
C +8.6632 +7.3995 +7.4645
C +9.4760 +6.7435 +8.5882
C +7.1827 +6.9761 +7.5575
C +6.3573 +7.3664 +6.3429
O +6.8498 +6.7553 +5.1224
C +5.5417 +6.2570 +4.7836
C +4.9403 +6.7575 +6.1159
C +4.4269 +5.6880 +7.0718
H +9.9053 +9.1889 +7.4273
H +8.3374 +9.4152 +6.6529
H +8.4502 +9.3517 +8.4187
H +9.0413 +7.0245 +6.5050
H +9.1224 +7.0730 +9.5731
H +9.3961 +5.6518 +8.5546
H +10.5368 +7.0050 +8.5138
H +7.1373 +5.8886 +7.6843
H +6.7264 +7.4215 +8.4539
H +6.3477 +8.4602 +6.2340
H +5.1432 +6.7309 +3.8769
H +5.5423 +5.1682 +4.6405
H +4.1749 +7.5269 +5.9834
H +5.1422 +4.8681 +7.1887
H +4.2207 +6.0998 +8.0653
H +3.4934 +5.2582 +6.6924
19
{"Lattice": "14.0 0.0 0.0 0.0 14.0 0.0 0.0 0.0 14.0", "Properties": "species:S:1:pos:R:3", "cutoff": -1.0, "dft_formation_energy_per_atom_in_eV": -4.251757716560426, "nneightol": 1.2, "smiles": "[H]C1([H])OC([H])([H])[C@]23C([H])([H])[C@]4([H])[C@@]2([H])[C@@]1([H])[C@@]43[H]"}
C +6.2934 +8.9608 +7.0053
C +7.8100 +8.6140 +7.0014
C +7.5948 +7.3857 +7.9377
C +8.2460 +6.3562 +6.9940
C +7.5085 +5.0094 +6.9957
O +6.1667 +5.1041 +6.5168
C +5.4186 +6.2381 +6.9607
C +6.3457 +7.4211 +6.9921
C +7.6001 +7.3945 +6.0473
H +5.9006 +9.4364 +7.9103
H +5.8952 +9.4515 +6.1107
H +8.6618 +9.2958 +7.0069
H +7.5583 +7.3944 +9.0296
H +9.3352 +6.2416 +7.0083
H +7.9934 +4.2927 +6.3249
H +7.5279 +4.5779 +8.0120
H +4.6035 +6.3572 +6.2383
H +4.9701 +6.0529 +7.9511
H +7.5702 +7.4159 +4.9569
18
{"Lattice": "14.0 0.0 0.0 0.0 14.0 0.0 0.0 0.0 14.0", "Properties": "species:S:1:pos:R:3", "cutoff": -1.0, "dft_formation_energy_per_atom_in_eV": -4.347046103092053, "nneightol": 1.2, "smiles": "[H]C1=C(C([H])([H])C([H])([H])[H])[C@]2([H])N([H])[C@]2([H])C1=O"}
C +6.1255 +8.8140 +8.5194
C +6.4376 +7.3063 +8.5708
C +7.1669 +6.8173 +7.3595
C +8.4141 +6.3184 +7.2927
C +8.7721 +5.9417 +5.9016
O +9.8368 +5.5468 +5.4878
C +7.5205 +6.1979 +5.0719
N +6.3668 +5.3668 +5.5304
C +6.5243 +6.7723 +5.9968
H +7.0461 +9.4016 +8.4564
H +5.5049 +9.0684 +7.6544
H +5.5844 +9.1223 +9.4184
H +7.0261 +7.0828 +9.4662
H +5.4948 +6.7496 +8.6607
H +9.0904 +6.1665 +8.1247
H +7.6081 +6.4628 +4.0254
H +5.6846 +5.3491 +4.7709
H +5.7964 +7.5155 +5.6922
19
{"Lattice": "14.0 0.0 0.0 0.0 14.0 0.0 0.0 0.0 14.0", "Properties": "species:S:1:pos:R:3", "cutoff": -1.0, "dft_formation_energy_per_atom_in_eV": -4.199322852728975, "nneightol": 1.2, "smiles": "[H]O[C@]1([H])[C@@]2([H])[C@@]([H])(C([H])([H])[H])O[C@]3([H])[C@@]2([H])[C@]13[H]"}
C +5.7096 +8.8389 +6.4109
C +5.8727 +7.3295 +6.4823
O +6.6717 +6.8779 +5.3693
C +7.3796 +5.7407 +5.8146
C +8.4267 +5.8952 +6.9036
C +7.0277 +5.3381 +7.2011
C +6.6095 +6.7521 +7.6959
C +8.1298 +7.1510 +7.7047
O +8.7266 +7.0316 +8.9819
H +6.6695 +9.3544 +6.4986
H +5.2593 +9.1233 +5.4559
H +5.0509 +9.1861 +7.2137
H +4.8779 +6.8575 +6.4145
H +7.5605 +5.0108 +5.0347
H +9.3827 +5.3848 +6.8776
H +6.6933 +4.3691 +7.5458
H +6.0965 +6.8501 +8.6524
H +8.3919 +8.1115 +7.2399
H +8.4635 +7.7975 +9.5025
15
{"Lattice": "14.0 0.0 0.0 0.0 14.0 0.0 0.0 0.0 14.0", "Properties": "species:S:1:pos:R:3", "cutoff": -1.0, "dft_formation_energy_per_atom_in_eV": -4.391260571731812, "nneightol": 1.2, "smiles": "[H]C(=O)C([H])([H])Oc1c([H])c([H])nn1[H]"}
O +4.4221 +4.9509 +6.6731
C +5.0561 +5.7533 +7.3029
C +6.4449 +5.4605 +7.8621
O +7.1053 +6.6366 +8.3009
C +7.5551 +7.4383 +7.3127
C +7.5236 +7.3804 +5.9324
C +8.1914 +8.5662 +5.5390
N +8.6001 +9.2918 +6.5693
N +8.1968 +8.5787 +7.6525
H +4.6664 +6.7631 +7.5601
H +6.3310 +4.8296 +8.7498
H +7.0400 +4.9109 +7.1229
H +7.0924 +6.6174 +5.3073
H +8.3857 +8.9102 +4.5335
H +8.3891 +8.9121 +8.5817
19
{"Lattice": "14.0 0.0 0.0 0.0 14.0 0.0 0.0 0.0 14.0", "Properties": "species:S:1:pos:R:3", "cutoff": -1.0, "dft_formation_energy_per_atom_in_eV": -4.150266434217985, "nneightol": 1.2, "smiles": "[H]C#CC([H])([H])OC([H])([H])C1(O[H])C([H])([H])C1([H])[H]"}
O +5.4354 +8.5202 +7.0811
C +5.5607 +7.1399 +7.2750
C +6.6596 +6.5294 +6.4471
O +7.8650 +7.1834 +6.8199
C +8.9581 +6.8434 +5.9886
C +10.1422 +7.5882 +6.3948
C +11.1309 +8.1926 +6.7093
C +5.2490 +6.5809 +8.6426
C +4.2793 +6.4015 +7.4890
H +6.3142 +8.8884 +7.2370
H +6.7324 +5.4441 +6.6196
H +6.4593 +6.6949 +5.3758
H +9.1621 +5.7607 +6.0457
H +8.7228 +7.0645 +4.9335
H +12.0031 +8.7287 +6.9919
H +5.8019 +5.7173 +8.9963
H +4.9811 +7.3009 +9.4068
H +3.3797 +7.0058 +7.4938
H +4.1631 +5.4152 +7.0523
27
{"Lattice": "14.0 0.0 0.0 0.0 14.0 0.0 0.0 0.0 14.0", "Properties": "species:S:1:pos:R:3", "cutoff": -1.0, "dft_formation_energy_per_atom_in_eV": -4.00676926607033, "nneightol": 1.2, "smiles": "[H]C([H])([H])[C@]1([H])C([H])([H])[C@]([H])(C([H])([H])[H])C([H])([H])[C@]([H])(C([H])([H])[H])C1([H])[H]"}
C +6.0934 +9.7904 +7.0238
C +6.1420 +8.2593 +7.0148
C +6.8192 +7.7206 +5.7446
C +6.8975 +6.1855 +5.7161
C +7.5897 +5.6774 +4.4476
C +7.5876 +5.6649 +6.9872
C +6.9215 +6.1716 +8.2764
C +7.6389 +5.6507 +9.5258
C +6.8422 +7.7066 +8.2667
H +7.1046 +10.2149 +7.0172
H +5.5662 +10.1778 +6.1452
H +5.5817 +10.1683 +7.9155
H +5.1057 +7.8875 +7.0221
H +6.2868 +8.0831 +4.8558
H +7.8386 +8.1320 +5.6808
H +5.8662 +5.8000 +5.7162
H +8.6253 +6.0345 +4.3959
H +7.6150 +4.5826 +4.4188
H +7.0742 +6.0247 +3.5456
H +7.6015 +4.5674 +6.9814
H +8.6410 +5.9855 +6.9793
H +5.8907 +5.7853 +8.2922
H +8.6749 +6.0090 +9.5611
H +7.1409 +5.9875 +10.4415
H +7.6666 +4.5558 +9.5425
H +7.8624 +8.1179 +8.3169
H +6.3258 +8.0592 +9.1689
18
{"Lattice": "14.0 0.0 0.0 0.0 14.0 0.0 0.0 0.0 14.0", "Properties": "species:S:1:pos:R:3", "cutoff": -1.0, "dft_formation_energy_per_atom_in_eV": -4.0989709315025715, "nneightol": 1.2, "smiles": "[H]C1([H])O[C@]2([H])C([H])([H])[C@](C([H])([H])[H])(O1)C2([H])[H]"}
C +6.7168 +9.0915 +7.0417
C +6.9205 +7.6000 +6.9417
C +8.1432 +6.9872 +6.1923
C +7.9076 +5.7571 +7.1087
C +7.3559 +6.7452 +8.1734
O +6.8589 +4.9683 +6.5437
C +5.6220 +5.6467 +6.5911
O +5.7390 +7.0315 +6.3483
H +7.6178 +9.5757 +7.4293
H +6.4927 +9.5104 +6.0559
H +5.8793 +9.3233 +7.7071
H +8.0323 +6.8289 +5.1183
H +9.0773 +7.5085 +6.4194
H +8.7257 +5.0785 +7.3526
H +8.1736 +7.2328 +8.7084
H +6.6060 +6.4074 +8.8911
H +4.9862 +5.2276 +5.8065
H +5.1453 +5.4795 +7.5704
25
{"Lattice": "14.0 0.0 0.0 0.0 14.0 0.0 0.0 0.0 14.0", "Properties": "species:S:1:pos:R:3", "cutoff": -1.0, "dft_formation_energy_per_atom_in_eV": -3.8654649167170767, "nneightol": 1.2, "smiles": "[H]C([H])([H])OC([H])([H])[C@@]([H])(OC([H])([H])[H])C([H])([H])C([H])([H])C([H])([H])[H]"}
C +6.2751 +10.4438 +5.6401
C +6.3129 +8.9136 +5.6375
C +7.0455 +8.3339 +6.8515
C +7.0628 +6.8021 +6.8766
C +7.8707 +6.2855 +8.0677
O +8.1066 +4.8996 +7.9239
C +8.8089 +4.3493 +9.0124
O +5.7122 +6.3676 +6.9292
C +5.4605 +5.0799 +6.4005
H +7.2853 +10.8689 +5.6345
H +5.7475 +10.8307 +4.7626
H +5.7627 +10.8256 +6.5304
H +5.2952 +8.5116 +5.6198
H +6.8016 +8.5602 +4.7194
H +8.0802 +8.6990 +6.8702
H +6.5675 +8.6912 +7.7735
H +7.5377 +6.4239 +5.9556
H +8.8308 +6.8263 +8.1307
H +7.3096 +6.4894 +8.9947
H +8.2517 +4.4578 +9.9563
H +8.9533 +3.2858 +8.8072
H +9.7950 +4.8236 +9.1418
H +5.8081 +4.9997 +5.3588
H +5.9424 +4.2910 +6.9870
H +4.3761 +4.9399 +6.4180
19
{"Lattice": "14.0 0.0 0.0 0.0 14.0 0.0 0.0 0.0 14.0", "Properties": "species:S:1:pos:R:3", "cutoff": -1.0, "dft_formation_energy_per_atom_in_eV": -4.0885410268755, "nneightol": 1.2, "smiles": "[H]OC([H])([H])[C@@]1([H])[C@@]2([H])OC([H])([H])C([H])([H])[C@@]12O[H]"}
O +8.0131 +9.6175 +6.7717
C +7.9100 +8.5779 +7.7294
C +6.5302 +7.9428 +7.7352
C +5.9733 +7.3627 +6.4495
O +6.9331 +7.1445 +5.4408
C +7.5335 +5.8539 +5.6527
C +7.3884 +5.5258 +7.1552
C +6.2618 +6.4581 +7.6167
O +5.2725 +5.9590 +8.4613
H +7.8487 +9.1988 +5.9177
H +8.6891 +7.8193 +7.5685
H +8.1119 +9.0337 +8.7035
H +5.7811 +8.4508 +8.3363
H +4.9752 +7.6043 +6.0982
H +7.0125 +5.1060 +5.0383
H +8.5707 +5.9137 +5.3128
H +7.0827 +4.4875 +7.3139
H +8.3204 +5.6758 +7.7073
H +4.7917 +5.2678 +7.9910
18
{"Lattice": "14.0 0.0 0.0 0.0 14.0 0.0 0.0 0.0 14.0", "Properties": "species:S:1:pos:R:3", "cutoff": -1.0, "dft_formation_energy_per_atom_in_eV": -4.300295412793096, "nneightol": 1.2, "smiles": "[H]C([H])([H])C#C[C@]([H])(C#N)OC([H])([H])C([H])([H])[H]"}
C +6.2613 +9.6239 +5.2539
C +6.5391 +8.1342 +5.1755
O +6.8680 +7.6811 +6.4882
C +7.1110 +6.2942 +6.5682
C +8.3660 +5.9239 +5.8556
N +9.3259 +5.6521 +5.2733
C +7.1790 +5.8834 +7.9673
C +7.2270 +5.5210 +9.1124
C +7.2919 +5.0941 +10.5009
H +7.1442 +10.1596 +5.6125
H +5.9993 +10.0091 +4.2642
H +5.4327 +9.8267 +5.9380
H +5.6560 +7.5869 +4.8078
H +7.3697 +7.9266 +4.4856
H +6.2974 +5.7401 +6.0667
H +6.4945 +4.3812 +10.7351
H +8.2507 +4.6122 +10.7189
H +7.1862 +5.9499 +11.1759
16
{"Lattice": "14.0 0.0 0.0 0.0 14.0 0.0 0.0 0.0 14.0", "Properties": "species:S:1:pos:R:3", "cutoff": -1.0, "dft_formation_energy_per_atom_in_eV": -4.25753761620222, "nneightol": 1.2, "smiles": "[H]N1C([H])([H])C2(C([H])([H])C2([H])[H])[C@@]1([H])C#N"}
N +5.5693 +4.1777 +6.0752
C +5.6812 +5.2342 +6.5305
C +5.8465 +6.5894 +7.0615
N +5.9835 +6.6792 +8.5351
C +7.1276 +7.6231 +8.4151
C +7.2384 +7.2448 +6.9364
C +8.4264 +6.6873 +6.2196
C +7.8113 +7.9980 +5.7803
H +5.0540 +7.2218 +6.6358
H +5.1639 +7.0411 +9.0088
H +6.8665 +8.6788 +8.5728
H +7.9758 +7.3671 +9.0588
H +9.3812 +6.7138 +6.7343
H +8.2754 +5.8140 +5.5935
H +7.2505 +8.0125 +4.8511
H +8.3484 +8.9174 +5.9912
18
{"Lattice": "14.0 0.0 0.0 0.0 14.0 0.0 0.0 0.0 14.0", "Properties": "species:S:1:pos:R:3", "cutoff": -1.0, "dft_formation_energy_per_atom_in_eV": -4.167862150961725, "nneightol": 1.2, "smiles": "[H]N1[C@]2([H])C(=O)[C@@]1([H])[C@@]([H])(OC([H])([H])[H])C2([H])[H]"}
C +6.2173 +9.2570 +7.9823
O +5.9399 +7.9002 +7.7128
C +6.6837 +7.3613 +6.6490
C +8.1692 +6.9769 +7.0137
C +8.0687 +5.4473 +6.8165
N +7.2605 +5.2906 +5.5560
C +6.1445 +5.9507 +6.3112
C +6.7149 +5.1489 +7.5062
O +6.3118 +4.5170 +8.4271
H +7.2602 +9.4130 +8.2952
H +6.0217 +9.8906 +7.1034
H +5.5569 +9.5653 +8.7958
H +6.6337 +8.0275 +5.7740
H +8.9077 +7.4182 +6.3382
H +8.4142 +7.2712 +8.0384
H +8.9553 +4.8288 +6.9432
H +7.6133 +5.8765 +4.7980
H +5.1267 +5.8590 +5.9390
18
{"Lattice": "14.0 0.0 0.0 0.0 14.0 0.0 0.0 0.0 14.0", "Properties": "species:S:1:pos:R:3", "cutoff": -1.0, "dft_formation_energy_per_atom_in_eV": -4.095104661897956, "nneightol": 1.2, "smiles": "[H]c1c(OC([H])([H])[H])nnn1C([H])([H])C([H])([H])[H]"}
C +5.7454 +9.0550 +5.1741
C +6.3746 +7.6874 +4.9055
N +6.9375 +7.0813 +6.1031
C +6.2908 +6.5039 +7.1495
C +7.3163 +6.1613 +8.0072
O +7.1910 +5.5495 +9.1945
C +8.4122 +5.2975 +9.8884
N +8.4974 +6.5350 +7.4630
N +8.2608 +7.0987 +6.2999
H +6.4883 +9.7441 +5.5844
H +5.3591 +9.4755 +4.2410
H +4.9157 +8.9797 +5.8828
H +5.6402 +6.9941 +4.4833
H +7.2055 +7.7713 +4.2022
H +5.2234 +6.3827 +7.1971
H +8.9429 +6.2304 +10.1035
H +8.1270 +4.8033 +10.8180
H +9.0718 +4.6496 +9.3025
21
{"Lattice": "14.0 0.0 0.0 0.0 14.0 0.0 0.0 0.0 14.0", "Properties": "species:S:1:pos:R:3", "cutoff": -1.0, "dft_formation_energy_per_atom_in_eV": -4.0832683172207, "nneightol": 1.2, "smiles": "[H]C1([H])OC([H])([H])[C@]2([H])OC([H])([H])[C@]2([H])C([H])([H])C1([H])[H]"}
C +6.3268 +9.2524 +6.5311
O +7.5918 +9.1224 +5.8485
C +7.4578 +7.6839 +5.7743
C +8.6301 +6.9636 +6.4303
O +8.4012 +5.5669 +6.4907
C +7.7493 +5.1214 +7.6674
C +6.2675 +5.4981 +7.7853
C +5.9991 +7.0106 +7.8763
C +6.1038 +7.7228 +6.5295
H +6.4413 +9.7129 +7.5215
H +5.6080 +9.8420 +5.9490
H +7.3707 +7.3460 +4.7332
H +9.5326 +7.1201 +5.8285
H +8.8229 +7.3816 +7.4292
H +7.8482 +4.0309 +7.6571
H +8.2895 +5.4945 +8.5544
H +5.7191 +5.0721 +6.9355
H +5.8823 +5.0036 +8.6864
H +4.9939 +7.1809 +8.2809
H +6.6933 +7.4602 +8.5988
H +5.2710 +7.4128 +5.8922
23
{"Lattice": "14.0 0.0 0.0 0.0 14.0 0.0 0.0 0.0 14.0", "Properties": "species:S:1:pos:R:3", "cutoff": -1.0, "dft_formation_energy_per_atom_in_eV": -4.106891831293911, "nneightol": 1.2, "smiles": "[H]O[C@]1([H])C([H])=C([H])C([H])([H])C([H])([H])C1(C([H])([H])[H])C([H])([H])[H]"}
C +6.2020 +8.4844 +7.0106
C +6.3119 +6.9491 +6.9466
C +4.8992 +6.3459 +6.9403
C +7.0776 +6.5072 +5.6801
C +8.5166 +7.0418 +5.6172
C +9.2155 +6.9297 +6.9448
C +8.5773 +6.6380 +8.0772
C +7.0894 +6.4034 +8.1766
O +6.5783 +6.8972 +9.4161
H +7.1787 +8.9666 +7.1165
H +5.7349 +8.8715 +6.0988
H +5.5768 +8.7939 +7.8537
H +4.2952 +6.7634 +6.1272
H +4.9341 +5.2588 +6.8062
H +4.3918 +6.5521 +7.8871
H +7.1081 +5.4099 +5.6599
H +6.5199 +6.8168 +4.7880
H +9.0839 +6.4967 +4.8519
H +8.5289 +8.0911 +5.2876
H +10.2901 +7.0987 +6.9578
H +9.1192 +6.5503 +9.0165
H +6.9044 +5.3214 +8.2363
H +6.8663 +7.8122 +9.5031
19
{"Lattice": "14.0 0.0 0.0 0.0 14.0 0.0 0.0 0.0 14.0", "Properties": "species:S:1:pos:R:3", "cutoff": -1.0, "dft_formation_energy_per_atom_in_eV": -4.052733693923316, "nneightol": 1.2, "smiles": "[H]OC([H])([H])[C@@]1([H])O[C@@]1([H])C([H])([H])[C@]1([H])OC1([H])[H]"}
O +7.1425 +10.5881 +5.9797
C +7.5139 +9.5241 +6.8402
C +6.3001 +8.7452 +7.2820
O +5.6975 +7.9138 +6.2735
C +6.2336 +7.2847 +7.4464
C +7.3842 +6.3214 +7.2517
C +6.8856 +4.9800 +6.7619