19
Properties=species:S:1:pos:R:3 name=" C6H12O " energy_kcal_mol=-150.81 smiles=C1OC[C@H](C1)CC pbc="F F F"
C       -0.85012711       0.45291714       0.37334535
O        0.58404414       0.36861544       0.22941126
C        1.07746240       1.58683705      -0.34867387
C       -0.02366438       2.64045995      -0.16791755
C       -1.28104168       1.76111392      -0.29512442
H       -1.30639237      -0.43702676      -0.08827269
H       -1.09761748       0.44660929       1.44984300
H        2.02158444       1.84195796       0.15506336
H        1.28937566       1.43661194      -1.42735307
H        0.03267317       3.02944774       0.86473237
H       -2.16741198       2.20641862       0.17677794
H       -1.51016573       1.59828101      -1.36066820
C        0.03714202       3.81532415      -1.14740370
H       -0.86416173       4.43605661      -1.01499846
H       -0.01243192       3.41982335      -2.17714991
C        1.28365757       4.69277525      -0.99131776
H        2.20577025       4.12643382      -1.18687152
H        1.26269136       5.54087594      -1.69048061
H        1.35517718       5.10308309       0.02728440
16
Properties=species:S:1:pos:R:3 name=" C4H9NH2 " energy_kcal_mol=-144.38 smiles=CCCCN pbc="F F F"
C       -4.11009131       0.20370844       0.02540863
H       -3.75341775      -0.83711011       0.05109165
H       -3.76525236       0.64713407      -0.92083555
H       -5.20893160       0.17864494       0.00131317
C       -3.59202948       0.99609092       1.22840534
H       -3.99114078       2.02409665       1.19037178
H       -3.98601146       0.55225354       2.15842104
C       -2.06260246       1.05220987       1.29912827
H       -1.65554089       1.49636265       0.37600380
H       -1.66291973       0.02269922       1.34748098
C       -1.53785821       1.84711205       2.49429498
H       -1.96242359       1.41878711       3.42668818
H       -1.90779160       2.88362683       2.42998958
N       -0.06726765       1.89929754       2.48116685
H        0.27479916       2.45327241       3.26902691
H        0.31369264       0.95797923       2.60621549
16
Properties=species:S:1:pos:R:3 name=" C4H9CHO " energy_kcal_mol=-89.35 smiles=CCCCC=O pbc="F F F"
C       -4.15172662       0.25173577      -0.00838606
H       -3.73880315      -0.76337447      -0.10801485
H       -3.88972352       0.80580590      -0.92221035
H       -5.24683658       0.16482601       0.02735905
C       -3.60378189       0.95103327       1.23788966
H       -4.06407511       1.94973449       1.33233786
H       -3.90889590       0.39083712       2.13850409
C       -2.07811508       1.09488969       1.22088279
H       -1.76484616       1.66007647       0.32862194
H       -1.60915563       0.10276521       1.12079065
C       -1.52738415       1.78363090       2.46638895
H       -1.79515905       1.23440305       3.38962928
H       -1.97713854       2.78562198       2.61018327
C       -0.03103646       1.97542363       2.49133157
H        0.35867246       2.47155554       3.42043353
O        0.73211690       1.64252475       1.60759916
17
Properties=species:S:1:pos:R:3 name=" C4H9SO2H " energy_kcal_mol=-82.55 smiles=CCCC[S@@]([O])O pbc="F F F"
C       -5.79093711      -0.03263023      -0.00381635
H       -5.44448242      -1.07405809      -0.08077654
H       -5.47977405       0.48945911      -0.92111218
H       -6.88964910      -0.04715549       0.01534334
C       -5.22157261       0.64969102       1.24219765
H       -5.61280391       1.67860775       1.31292339
H       -5.57513839       0.12593789       2.14581721
C       -3.68665748       0.68856024       1.25067745
H       -3.33269255       1.21804586       0.34942778
H       -3.28901443      -0.33607789       1.18882322
C       -3.12996590       1.36968221       2.49774793
H       -3.35040281       0.82233122       3.42692007
H       -3.49950436       2.40117930       2.60559502
S       -1.31032375       1.57416082       2.48856011
O       -0.96479120       2.26258216       3.75314915
O       -1.07886693      -0.09681492       2.67814991
H       -0.13807815      -0.26422645       2.47566258
15
Properties=species:S:1:pos:R:3 name=" trans-2-pentene " energy_kcal_mol=-78.51 smiles=CC/C=C/C pbc="F F F"
C       -5.76745308      -0.23855881       0.00098197
H       -5.43699475      -1.27862615      -0.13962232
H       -5.26493952       0.37563760      -0.75972990
H       -6.84967954      -0.20282894      -0.19007522
C       -5.43686852       0.26196541       1.41687754
H       -5.78556007       1.30004079       1.53903509
H       -6.00279075      -0.34487505       2.14602077
C       -3.97190847       0.18462218       1.73816540
H       -3.52089719      -0.81551063       1.68982361
C       -3.19033013       1.22351380       2.05655312
H       -3.64348235       2.22177651       2.10034189
C       -1.72602012       1.14530619       2.36798530
H       -1.13539318       1.76498143       1.67365476
H       -1.51110898       1.52289784       3.38101944
H       -1.35458411       0.11292488       2.30385288
15
Properties=species:S:1:pos:R:3 name=" toluene " energy_kcal_mol=-66.96 smiles=c1cccc(c1)C pbc="F F F"
C       -1.34875513      -0.04778932      -0.01501213
C        0.04841859      -0.05514772      -0.00663581
C        0.74081302       1.15830150      -0.01560675
C        0.03996300       2.36657111      -0.03066552
C       -1.36274669       2.39004282      -0.03461099
C       -2.04406485       1.16342618      -0.02984342
H       -1.90065175      -0.98936605      -0.01430760
H        0.59391562      -0.99994183       0.00182226
H        1.83213634       1.16509372      -0.01531321
H        0.59064119       3.31010012      -0.04227554
H       -3.13655310       1.15848792      -0.04065943
C       -2.11758946       3.69631138      -0.01853232
H       -3.08329430       3.60937654      -0.53507317
H       -2.32759115       4.01846419       1.01414986
H       -1.54253135       4.49921853      -0.49974215
18
Properties=species:S:1:pos:R:3 name=" pentanol " energy_kcal_mol=-63.89 smiles=CCCCCO pbc="F F F"
C       -5.38046084      -0.25955489      -0.00442280
H       -5.04590808      -1.30725845      -0.04648612
H       -5.04837899       0.23052707      -0.93231465
H       -6.47979077      -0.26118556      -0.00381541
C       -4.81944034       0.45182100       1.22916430
H       -5.19850020       1.48735762       1.26293181
H       -5.19697521      -0.03857886       2.14226690
C       -3.28733547       0.47597721       1.26927032
H       -2.90999772       0.96645774       0.35448426
H       -2.90884037      -0.56125766       1.23537084
C       -2.72340452       1.18786365       2.50295203
H       -3.08817247       0.69845434       3.42094505
H       -3.08592798       2.22848553       2.53678881
C       -1.20301482       1.20446436       2.53531307
H       -0.81352521       1.70998232       1.63031045
H       -0.81552349       0.16698147       2.53046183
O       -0.78678069       1.89617936       3.72208235
H        0.18461649       1.90572485       3.73849552
16
Properties=species:S:1:pos:R:3 name=" C2H5O_2 " energy_kcal_mol=-58.53 smiles=CCOOCC pbc="F F F"
C       -5.73445481       0.84947530      -0.00075900
H       -5.38801314       1.38962146       0.89061502
H       -5.38755646       1.38756829      -0.89319474
H       -6.83326472       0.85180462      -0.00103271
C       -5.23340550      -0.58679062       0.00101182
H       -5.57938751      -1.13269924      -0.89472327
H       -5.58001358      -1.13070482       0.89772073
O       -3.81152563      -0.51229534       0.00141009
O       -3.35175282      -1.92845859       0.00274439
C       -1.92980806      -1.85408807       0.00214081
H       -1.58321092      -1.30817107       0.89762706
H       -1.58387803      -1.31021244      -0.89484204
C       -1.42886447      -3.29038753       0.00359429
H       -1.77585826      -3.83049420      -0.88760845
H       -0.33005359      -3.29278888       0.00324214
H       -1.77528468      -3.82849628       0.89622666
18
Properties=species:S:1:pos:R:3 name=" 3-hexene " energy_kcal_mol=-56.64 smiles=CC/C=C/CC pbc="F F F"
C       -5.24099450      -0.01514417       0.12060200
H       -4.91095714      -1.05921232       0.01227712
H       -4.75041514       0.57210667      -0.66867891
H       -6.32586621       0.01258244      -0.05626413
C       -4.89121967       0.53500496       1.51315367
H       -5.23781550       1.57694698       1.60352259
H       -5.44720056      -0.04568499       2.27073284
C       -3.42198729       0.46729272       1.81750259
H       -2.97131044      -0.53386631       1.79053025
C       -2.63517715       1.51394641       2.09594469
H       -3.08576504       2.51520007       2.12281824
C       -1.16590269       1.44615168       2.39967547
H       -0.61007204       2.02423389       1.63990929
H       -0.82014395       0.40369100       2.31205268
C       -0.81492656       2.00026697       3.79023964
H       -1.30713803       1.41716422       4.58160452
H        0.26984936       1.97027540       3.96727235
H       -1.14217164       3.04561856       3.89476179
15
Properties=species:S:1:pos:R:3 name=" S_C2H5_2 " energy_kcal_mol=-52.85 smiles=C(C)SCC pbc="F F F"
C        0.91191185       0.42147356       0.00136704
H        1.21916101       0.99148376      -0.88896934
H        1.22092545       0.98932942       0.89247234
C        1.54935208      -0.96586609      -0.00097132
H        1.25158067      -1.53860254      -0.89046945
H        2.64548023      -0.88091342      -0.00206607
H        1.25357742      -1.54076971       0.88779389
C       -1.37706244       2.03845474       0.00315044
H       -0.94331982       2.51884398      -0.88723753
H       -0.94384401       2.51848085       0.89399049
C       -2.89756573       2.17686362       0.00272511
H       -3.33975110       1.70550913       0.89154630
H       -3.18297128       3.23865781       0.00307837
H       -3.33914878       1.70621608      -0.88676480
S       -0.90999654       0.27128403       0.00275953
19
Properties=species:S:1:pos:R:3 name=" ax-methylcyclohexene " energy_kcal_mol=-52.6 smiles=[CH]1CCCC[C]1C pbc="F F F"
C       -2.76645075      -1.73214736       0.22975135
C       -1.32303226      -2.14395121       0.15390241
C       -0.67338651      -0.68881909       0.20336149
C       -1.24411516       0.27077522       1.28455465
C       -2.83791889       0.28782261       1.42154642
C       -3.09297008      -1.18949459       1.44417284
H        0.41588674      -0.78200954       0.34964412
H       -0.99482068      -2.73429392       1.02057627
H       -1.00600096      -2.66412304      -0.76303530
H       -3.03275726      -1.09854979      -0.63182140
H       -0.82530883       0.00092154       2.26661673
H       -0.89819179       1.29499556       1.07224564
H       -3.13813362       0.85925655       2.31496073
H       -3.26512946       0.76746085       0.52817986
H       -0.81838944      -0.23390328      -0.79002229
C       -2.90446018      -1.92435371       2.74230192
H       -3.84770455      -1.89566144       3.31463592
H       -2.66088573      -2.98343496       2.57885423
H       -2.13684724      -1.47737351       3.39629845
16
Properties=species:S:1:pos:R:3 name=" hexyne " energy_kcal_mol=-46.72 smiles=CCCCC#C pbc="F F F"
C       -4.47070156      -0.45459535      -0.06839418
H       -4.06556211      -1.47750017      -0.06463376
H       -4.06194383       0.05999952      -0.95105779
H       -5.55957464      -0.52749447      -0.19980926
C       -4.11112920       0.28742301       1.22100225
H       -4.55965415       1.29528002       1.20427345
H       -4.56222949      -0.23149261       2.08397890
C       -2.60011788       0.41003472       1.43845481
H       -2.13957191       0.93566479       0.58666427
H       -2.14193506      -0.59139583       1.46754095
C       -2.24725833       1.15990184       2.73977956
H       -2.70133084       0.63740072       3.59958304
H       -2.70375217       2.16443418       2.71927925
C       -0.81259641       1.29185790       2.96424477
C        0.38368108       1.39239799       3.12897372
H        1.43884340       1.48346402       3.27970154
13
Properties=species:S:1:pos:R:3 name=" 2-pentyne " energy_kcal_mol=-44.82 smiles=CCC#CC pbc="F F F"
C       -1.15652361       2.93352478       1.38638873
H       -1.85899517       3.64036578       1.84778981
H       -0.88476369       3.31466237       0.39188227
H       -0.25010039       2.90547455       2.00563584
C       -1.78583109       1.53234273       1.27366635
H       -2.67209324       1.57854710       0.61845852
H       -1.07752237       0.85015202       0.77388167
C       -2.16996609       0.96729694       2.56450663
C       -2.47846590       0.52534993       3.65250700
C       -2.85195129      -0.01527234       4.95275370
H       -2.42391460      -1.01780635       5.10694049
H       -2.49335749       0.62859056       5.77043736
H       -3.94494133      -0.10110164       5.05177549
13
Properties=species:S:1:pos:R:3 name=" 2-pentyne " energy_kcal_mol=-43.67 smiles=CCC#CC pbc="F F F"
C       -1.15652361       2.93352478       1.38638873
H       -1.85899517       3.64036578       1.84778981
H       -0.88476369       3.31466237       0.39188227
H       -0.25010039       2.90547455       2.00563584
C       -1.78583109       1.53234273       1.27366635
H       -2.67209324       1.57854710       0.61845852
H       -1.07752237       0.85015202       0.77388167
C       -2.16996609       0.96729694       2.56450663
C       -2.47846590       0.52534993       3.65250700
C       -2.85195129      -0.01527234       4.95275370
H       -2.42391460      -1.01780635       5.10694049
H       -2.49335749       0.62859056       5.77043736
H       -3.94494133      -0.10110164       5.05177549
13
Properties=species:S:1:pos:R:3 name=" 2-pentyne " energy_kcal_mol=-42.89 smiles=CCC#CC pbc="F F F"
C       -1.15652361       2.93352478       1.38638873
H       -1.85899517       3.64036578       1.84778981
H       -0.88476369       3.31466237       0.39188227
H       -0.25010039       2.90547455       2.00563584
C       -1.78583109       1.53234273       1.27366635
H       -2.67209324       1.57854710       0.61845852
H       -1.07752237       0.85015202       0.77388167
C       -2.16996609       0.96729694       2.56450663
C       -2.47846590       0.52534993       3.65250700
C       -2.85195129      -0.01527234       4.95275370
H       -2.42391460      -1.01780635       5.10694049
H       -2.49335749       0.62859056       5.77043736
H       -3.94494133      -0.10110164       5.05177549
18
Properties=species:S:1:pos:R:3 name=" 1-hexene " energy_kcal_mol=-37.08 smiles=CCCCC=C pbc="F F F"
C       -4.53146564      -0.31507414      -0.09485831
H       -4.18227912      -1.35274543      -0.20801188
H       -4.12445604       0.26398128      -0.93759464
H       -5.62652110      -0.31993079      -0.19212366
C       -4.09000416       0.27451135       1.24690784
H       -4.48578097       1.29968277       1.34762509
H       -4.53876081      -0.30577638       2.07111577
C       -2.56832190       0.30294190       1.42297475
H       -2.11172807       0.89001884       0.60837944
H       -2.16897747      -0.72162223       1.32094550
C       -2.12334205       0.88792790       2.77554308
H       -2.59873020       0.29924317       3.58182139
H       -2.49853498       1.91965924       2.87852578
C       -0.63486906       0.87072777       2.96602466
H       -0.15806896      -0.11538955       2.90730639
C        0.13139432       1.94341701       3.18426339
H        1.21179158       1.86086148       3.30931683
H       -0.29717787       2.94668193       3.24893624
13
Properties=species:S:1:pos:R:3 name=" 1-pentyne " energy_kcal_mol=-34.93 smiles=CCCC#C pbc="F F F"
C       -4.11034842       0.45145719       0.05954927
H       -3.93130625      -0.60583044      -0.18835562
H       -3.91839473       1.04316980      -0.84839322
H       -5.17552647       0.55908609       0.30733934
C       -3.22505457       0.90975447       1.21909631
H       -3.43625168       1.96119053       1.46657027
H       -3.45106496       0.32698457       2.12519896
C       -1.72231875       0.76725854       0.89769543
H       -1.48849448       1.33889177      -0.01739540
H       -1.49613404      -0.28720678       0.66302550
C       -0.85005073       1.21732478       1.97580624
C       -0.14301886       1.60633517       2.87969327
H        0.48569754       1.94418421       3.67658514
13
Properties=species:S:1:pos:R:3 name=" C3H7NH2 " energy_kcal_mol=-32.47 smiles=CCCN pbc="F F F"
C       -4.92154244      -0.93536885       0.03408146
H       -4.51206184      -1.95244972      -0.06280535
H       -4.69547547      -0.39718288      -0.89893267
H       -6.01429549      -1.02344448       0.10937925
C       -4.33629439      -0.20928041       1.24713451
H       -4.77036027       0.79878891       1.33917555
H       -4.61260349      -0.74994701       2.16958456
C       -2.81461750      -0.07731307       1.18722911
H       -2.53609747       0.48334786       0.27949111
H       -2.37056717      -1.08992051       1.07981017
N       -2.30897596       0.67367641       2.34643880
H       -2.49569412       0.15107573       3.20594287
H       -1.29382741       0.77576568       2.28815036
19
Properties=species:S:1:pos:R:3 name=" eq-methylcyclohexene " energy_kcal_mol=-32.1 smiles=C1CC=C(CC1)C pbc="F F F"
C       -2.82848514      -1.88236776      -0.00398228
C       -1.29551716      -1.87284314      -0.06936998
C       -0.72040169      -0.50484531       0.18841337
C       -1.41201074       0.52768808       0.69954955
C       -2.86262767       0.38533385       1.10541259
C       -3.32299517      -1.07495121       1.20047194
H       -0.88201591      -2.59156259       0.66348804
H       -0.95445602      -2.23624110      -1.05325197
H       -3.23432429      -1.43642380      -0.92772054
H       -3.20273145      -2.91656306       0.03973033
H       -3.01973380       0.89693400       2.07111289
H       -3.49310929       0.93679001       0.38213476
H       -2.92046485      -1.52282680       2.12487444
H       -4.41998974      -1.12258810       1.27865756
H        0.33397937      -0.35548758      -0.06819116
C       -0.79788666       1.88587899       0.89841693
H       -0.81855176       2.18110212       1.96086620
H        0.24462565       1.91626792       0.55383503
H       -1.36167134       2.65992909       0.35051856
15
Properties=species:S:1:pos:R:3 name=" trans-2-pentene " energy_kcal_mol=-31.22 smiles=CC/C=C/C pbc="F F F"
C       -5.76745308      -0.23855881       0.00098197
H       -5.43699475      -1.27862615      -0.13962232
H       -5.26493952       0.37563760      -0.75972990
H       -6.84967954      -0.20282894      -0.19007522
C       -5.43686852       0.26196541       1.41687754
H       -5.78556007       1.30004079       1.53903509
H       -6.00279075      -0.34487505       2.14602077
C       -3.97190847       0.18462218       1.73816540
H       -3.52089719      -0.81551063       1.68982361
C       -3.19033013       1.22351380       2.05655312
H       -3.64348235       2.22177651       2.10034189
C       -1.72602012       1.14530619       2.36798530
H       -1.13539318       1.76498143       1.67365476
H       -1.51110898       1.52289784       3.38101944
H       -1.35458411       0.11292488       2.30385288
13
Properties=species:S:1:pos:R:3 name=" 2-pentyne " energy_kcal_mol=-29.98 smiles=CCC#CC pbc="F F F"
C       -1.15652361       2.93352478       1.38638873
H       -1.85899517       3.64036578       1.84778981
H       -0.88476369       3.31466237       0.39188227
H       -0.25010039       2.90547455       2.00563584
C       -1.78583109       1.53234273       1.27366635
H       -2.67209324       1.57854710       0.61845852
H       -1.07752237       0.85015202       0.77388167
C       -2.16996609       0.96729694       2.56450663
C       -2.47846590       0.52534993       3.65250700
C       -2.85195129      -0.01527234       4.95275370
H       -2.42391460      -1.01780635       5.10694049
H       -2.49335749       0.62859056       5.77043736
H       -3.94494133      -0.10110164       5.05177549
15
Properties=species:S:1:pos:R:3 name=" 1-pentene " energy_kcal_mol=-25.84 smiles=CCCC=C pbc="F F F"
C       -3.68308053       0.94452211      -0.01656012
H       -3.68590013      -0.15545023       0.01932632
H       -3.15545960       1.24410275      -0.93472391
H       -4.72649383       1.27817511      -0.10830711
C       -3.01404275       1.53769362       1.22534673
H       -3.04848053       2.63830850       1.18144679
H       -3.58173640       1.25027510       2.12610967
C       -1.54958284       1.09017006       1.38850510
H       -1.52589130      -0.01495244       1.41907116
H       -0.96721377       1.39104970       0.50204330
C       -0.89999612       1.63188771       2.62799409
H       -1.38186039       1.36273802       3.57573515
C        0.18641143       2.40913614       2.65699083
H        0.60540367       2.77523978       3.59524962
H        0.70012704       2.70592330       1.73893155
16
Properties=species:S:1:pos:R:3 name=" C4H9CHO " energy_kcal_mol=-23.47 smiles=CCCCC=O pbc="F F F"
C       -4.15172662       0.25173577      -0.00838606
H       -3.73880315      -0.76337447      -0.10801485
H       -3.88972352       0.80580590      -0.92221035
H       -5.24683658       0.16482601       0.02735905
C       -3.60378189       0.95103327       1.23788966
H       -4.06407511       1.94973449       1.33233786
H       -3.90889590       0.39083712       2.13850409
C       -2.07811508       1.09488969       1.22088279
H       -1.76484616       1.66007647       0.32862194
H       -1.60915563       0.10276521       1.12079065
C       -1.52738415       1.78363090       2.46638895
H       -1.79515905       1.23440305       3.38962928
H       -1.97713854       2.78562198       2.61018327
C       -0.03103646       1.97542363       2.49133157
H        0.35867246       2.47155554       3.42043353
O        0.73211690       1.64252475       1.60759916
13
Properties=species:S:1:pos:R:3 name=" dimethyloxirane " energy_kcal_mol=-22.45 smiles=[C@H]1([C@H](O1)C)C pbc="F F F"
C       -0.92548289       0.26459331       0.02516232
C        0.54711173       0.26200898      -0.02474243
O       -0.18687997       1.50956646       0.00187589
H       -1.44876950       0.05848033      -0.91832736
H        1.06961103       0.05140385       0.91820188
C        1.32642752      -0.03769011      -1.27733727
H        2.24392679       0.56739834      -1.31806801
H        1.62077975      -1.09795742      -1.30476164
H        0.72818224       0.18367708      -2.17142063
C       -1.70588068      -0.03558457       1.27695068
H       -2.62115463       0.57275625       1.31934432
H       -2.00412046      -1.09483081       1.30154681
H       -1.10677484       0.18122164       2.17157543
14
Properties=species:S:1:pos:R:3 name=" methylpyridine " energy_kcal_mol=-20.27 smiles=c1cccc(n1)C pbc="F F F"
C       -1.96212545      -1.30462258      -1.20527270
C       -1.34568629      -1.85822257      -0.08099810
C       -1.52866212      -1.22043594       1.14546722
C       -2.31252819      -0.06814660       1.19274532
C       -2.89285561       0.41913471       0.01139322
N       -2.71534255      -0.19654912      -1.17518331
H       -1.06630235      -1.61204303       2.05295720
H       -1.84499962      -1.77389272      -2.18697069
H       -0.74076128      -2.76081694      -0.16910225
H       -2.47385287       0.45616957       2.13622030
C       -3.75580396       1.65306398       0.00357943
H       -3.68023450       2.20987166       0.94633478
H       -3.46955638       2.30992792      -0.82883975
H       -4.81096342       1.37981852      -0.15211369
16
Properties=species:S:1:pos:R:3 name=" C4H9NCO " energy_kcal_mol=-19.72 smiles=C(CN=C=O)CC pbc="F F F"
C       -2.97014361      -1.45069138       0.04162866
H       -3.74823170      -2.23136793       0.04923504
H       -2.01241239      -1.95974166       0.24032297
C       -3.25448876      -0.45802540       1.17410936
H       -2.47242363       0.31924252       1.20673743
H       -4.20868422       0.05537806       0.98548530
N       -3.35905505      -1.09225240       2.47163776
C       -2.92397679      -0.76929274      -1.33014319
H       -3.87830504      -0.24584832      -1.50893986
H       -2.14452751       0.01175626      -1.32550177
C       -2.65736468      -1.75086214      -2.47447664
H       -2.62798085      -1.23544146      -3.44465149
H       -1.69499943      -2.26681276      -2.34047158
H       -3.44170061      -2.52066782      -2.52898888
C       -2.64412361      -1.64247815       3.27650033
O       -2.06554462      -2.19578197       4.14833018
12
Properties=species:S:1:pos:R:3 name=" C3H7CN " energy_kcal_mol=-19.34 smiles=CCCC#N pbc="F F F"
C       -4.04121230      -0.49929645       0.00305586
H       -3.69617581      -1.54341138      -0.02931617
H       -3.69730568      -0.00418228      -0.91727227
H       -5.13931804      -0.51084108      -0.01535164
C       -3.52625401       0.22020629       1.24982235
H       -3.90253427       1.25365195       1.27734647
H       -3.90264390      -0.27289449       2.15833300
C       -1.98393373       0.24911350       1.30066003
H       -1.58270539      -0.77756663       1.28999241
H       -1.58259384       0.75192719       0.40567662
C       -1.46553607       0.93225514       2.48242002
N       -1.07611856       1.48085499       3.43093587
18
Properties=species:S:1:pos:R:3 name=" propylfuran " energy_kcal_mol=-19.45 smiles=c1c(cco1)CCC pbc="F F F"
C       -0.54840285       0.75271127       0.09542232
C        0.81070428       0.62185009       0.01081666
C        1.31200977       1.96596804      -0.12754116
C        0.22827157       2.79368809      -0.11737747
H       -1.35705555       0.03807481       0.20260128
H        2.34944645       2.27061623      -0.22740710
H        0.10400286       3.86758516      -0.19605408
C        1.60818175      -0.64776848       0.07110343
H        2.26784303      -0.71167102      -0.81179126
H        0.92446514      -1.50972490       0.00285720
C        2.46691628      -0.78300155       1.34257612
H        3.14406389       0.08349215       1.41671017
H        1.80831151      -0.72933068       2.22438684
C        3.27913028      -2.07913058       1.37234475
H        3.96528247      -2.14072706       0.51372175
H        3.88316823      -2.15312522       2.28768175
H        2.62283279      -2.96194966       1.33404021
O       -0.92519862       2.06989489       0.01903171
16
Properties=species:S:1:pos:R:3 name=" diethylamine " energy_kcal_mol=-17.39 smiles=N(CC)CC pbc="F F F"
N       -0.52809284       0.08153673       0.06830379
H       -0.23632586       0.46853119      -0.83171615
C       -0.16420138      -1.33919865       0.11705292
H       -0.39875495      -1.77086129      -0.86818239
H        0.92789694      -1.48505407       0.27819064
C       -0.93653039      -2.10373283       1.19228763
H       -2.01909345      -1.99786186       1.03539801
H       -0.68048593      -3.17271935       1.16233322
H       -0.70112031      -1.73837446       2.20179192
C        0.05941100       0.89476169       1.13491398
H       -0.35463609       0.55519119       2.09728106
H        1.16302539       0.75902204       1.20546615
C       -0.26587209       2.37185095       0.93823620
H       -1.35297927       2.52919541       0.90900233
H        0.15339899       2.97729374       1.75393608
H        0.15701526       2.74907616      -0.00618297
13
Properties=species:S:1:pos:R:3 name=" C3H7NCO " energy_kcal_mol=-16.98 smiles=C(CN=C=O)C pbc="F F F"
C       -4.26989454       1.41274542       1.47462843
H       -4.72715731       1.06442421       2.41360831
C       -2.77514734       1.07539949       1.49993362
H       -2.29422084       1.40780761       0.56424892
H       -2.28492196       1.61892057       2.32092403
N       -2.50903209      -0.33440697       1.69918885
C       -2.75109394      -1.38495307       1.15040072
O       -2.91069189      -2.47661101       0.72228129
H       -4.74965485       0.84590426       0.66071820
C       -4.51432148       2.91183970       1.28772975
H       -4.05789225       3.49745101       2.09971654
H       -4.09278894       3.27246471       0.33766784
H       -5.58935492       3.13663735       1.28043468
18
Properties=species:S:1:pos:R:3 name=" C3H7CO2C2H3 " energy_kcal_mol=-16.14 smiles=CCCC(=O)OC=C pbc="F F F"
C       -6.10592877       0.18562564      -0.08143156
H       -5.84175305      -0.88114704      -0.02197479
H       -5.64875735       0.58924228      -0.99778071
H       -7.19654670       0.25162679      -0.19780925
C       -5.63710859       0.94694227       1.16041666
H       -5.94726960       2.00096304       1.09839807
H       -6.12506792       0.54364567       2.06028004
C       -4.12099244       0.88054677       1.33970012
H       -3.59510036       1.30125226       0.46624671
H       -3.77386573      -0.16494299       1.40634778
C       -3.62122989       1.60193098       2.56933017
O       -2.23815899       1.52706115       2.62228781
O       -4.29372269       2.16576121       3.40221102
C       -1.60149393       2.13009899       3.69575224
H       -2.27271773       2.61930559       4.40141774
C       -0.27453519       2.08081498       3.80012918
H        0.34299246       1.57445153       3.05912373
H        0.21391739       2.55715998       4.64735657
11
Properties=species:S:1:pos:R:3 name=" H2C-C5-CH2 " energy_kcal_mol=-14.3 smiles=C(#C[C]C#C[CH2])[CH2] pbc="F F F"
C       -1.08752712      -1.64776558      -0.02842993
C        0.18673017      -1.55169727      -0.01822407
C        1.46830328      -1.45925887      -0.00567915
C        2.75009047      -1.37017270       0.00878592
C        4.02503897      -1.28510552       0.02479401
C        5.34127799      -1.19739649       0.04223828
H        5.95663803      -1.71772039      -0.69618249
H        5.86257067      -0.60134883       0.79564016
C       -2.40291816      -1.74794660      -0.03797554
H       -3.02381477      -1.04737070      -0.60234944
H       -2.91802374      -2.53594948       0.51738569
12