148
Lattice="10.884862174 0.0 0.0 0.0 9.60035047371 0.0 -4.49023422888 0.0 13.4895879225" Properties=species:S:1:pos:R:3:CS:R:1 ENERGY=-2265.50029476 Natoms=148 NAME=KURZOO
S	0.40049761883	4.07213578792	9.62423186132	315.89
S	-1.69327092951	8.87236000665	10.609867016	315.91
S	5.99413032629	5.52821468579	3.86534517633	315.89
S	8.08789887463	0.728001351921	2.87972090648	315.91
O	2.45847674034	7.32283456701	10.3490874881	142.62
O	7.13334000142	2.52262123314	9.88542501405	142.63
O	3.93615120478	2.2775159067	3.14050043444	142.62
O	-0.738712056301	7.07772924057	3.60416290847	142.63
O	-0.0844774153324	7.96386587016	7.20773803438	-72.01
O	-1.20827412562	3.16367430601	13.0266982737	-72.20
O	6.47910536045	1.63648460355	6.28184988813	-72.01
O	7.60290207074	6.4366761677	0.462889648812	-72.20
O	2.39644391081	2.59299186709	6.42508378948	-309.91
O	0.801038777109	7.39331404958	0.319623092877	-309.92
O	3.9981840343	7.00735860662	7.06450413303	-309.91
O	5.59358916801	2.20704730899	13.1699648296	-309.92
O	3.65433123823	3.39551098545	8.02428774009	-309.27
O	5.93752904298	8.19566989502	12.2101159134	-309.27
O	2.74029670689	6.20485037312	5.46530018243	-309.27
O	0.457098902135	1.40469146355	1.27946112424	-309.27
N	0.756552345404	6.54967192193	8.81002240098	79.05
N	-2.04936919553	1.74952389723	11.4242397493	79.05
N	5.63807559972	3.05068943664	4.67956552154	79.05
N	8.44398625579	7.85082657648	2.06533728834	79.05
N	2.96662564608	2.49372192406	7.52262621221	-138.88
N	6.6253325989	7.2939461428	12.7117447867	-138.88
N	3.42799141418	7.10662854965	5.9669617103	-138.88
N	-0.230704653778	2.30641521577	0.777832250954	-138.88
C	-0.151560820911	5.42082463558	8.47853480833	94.55
C	-1.14125602922	0.620654841161	11.7555967236	94.55
C	6.54618876603	4.17952583812	5.01105311418	94.55
C	7.53587308948	8.97969563255	1.73398031404	94.55
C	0.0513003554261	4.93155008086	7.04211397154	141.67
C	-1.34412809042	0.131271437818	13.1919631361	141.67
C	6.34332758969	4.66881127771	6.44747395097	141.67
C	7.73875603554	9.46907903589	0.297624786424	141.67
H	1.11355405499	4.75881820302	6.83209055589	28.61
H	-2.40639267484	-0.0414386702964	13.4019756669	28.61
H	5.28107389013	4.84153227068	6.65749736662	28.61
H	8.80102061996	9.641789144	0.0876122556385	28.61
H	-0.342655461238	5.67988435533	6.34169486037	28.24
H	3.54005107026	0.879562172832	0.402859633922	28.24
H	6.73727252149	3.92047700324	7.14788217728	28.24
H	2.85457687486	8.72079918574	13.0867282886	28.24
H	-0.494455749116	3.98728828727	6.90124208528	30.32
H	-0.798393755601	8.78736011793	13.3328023678	30.32
H	6.88908369424	5.61306218644	6.58833495237	30.32
H	7.19302170072	0.813001240638	0.156785554754	30.32
C	-1.61586867459	5.77943730477	8.73197793919	140.85
C	0.323073594186	0.979278395208	11.5022733262	140.85
C	8.01048573485	3.8209240538	4.75759909846	140.85
C	6.07155435093	8.62108296336	1.98730371142	140.85
H	-1.91488672337	6.59942662692	8.06542163424	28.77
H	0.62204810352	1.79919152333	12.1689493647	28.77
H	8.30950378363	3.00092384679	5.42415540341	28.77
H	5.7725798416	7.80116983524	1.32062767298	28.77
H	-1.7822220232	6.07616953249	9.77377898273	30.84
H	0.489503136827	1.27611947156	10.460526707	30.84
H	8.17683908345	3.52418094121	3.71579805492	30.84
H	5.90511392343	8.32424188702	3.02906121551	30.84
H	-2.23865694874	4.90179086768	8.51404122874	30.46
H	0.945829213748	0.101599303532	11.7201664972	30.46
H	8.63328489386	4.69855960603	4.97553580891	30.46
H	5.44879873137	9.49875117018	1.76941054042	30.46
C	1.39123777391	5.18115085538	10.7020073743	112.76
C	-2.68410904835	0.381035485263	9.53222212136	112.76
C	5.00339017121	4.4192105032	2.78756966331	112.76
C	9.07873699347	9.21932587331	3.95735491629	112.76
C	2.54626315378	4.39407735644	11.3174374817	147.64
C	7.04570597606	9.19429069031	8.91687909294	147.64
C	3.84835390648	5.20627311727	2.17215044086	147.64
C	-0.6510889158	0.406070668263	4.57269794471	147.64
H	3.16665675825	3.92743243017	10.5401168192	29.47
H	6.42533414131	8.72771107322	9.69425417968	29.47
H	3.22797118687	5.67291804353	2.94946021843	29.47
H	-0.030717081055	0.87263940049	3.79533374283	29.47
H	2.15592111136	3.61251159776	11.9836345862	29.94
H	7.43603713362	8.41263785273	8.25075818248	29.94
H	4.23870683376	5.98784976081	1.50595333636	29.94
H	-1.0414091885	1.18771262098	5.23882974004	29.94
H	3.15509703462	5.07614458998	11.9271312666	28.43
H	6.43687209522	0.275931256111	8.30713088368	28.43
H	3.2395309105	4.52421676859	1.56244577104	28.43
H	-0.0422441500973	9.3244192176	5.18244615397	28.43
C	0.537102639114	5.85485851477	11.7782481218	151.23
C	-1.82999568328	1.05475402952	8.45597048904	151.23
C	5.85752530601	3.7455028438	1.71132891586	151.23
C	8.22461274354	8.54560732905	5.03360654861	151.23
H	0.0524759205409	5.08464566734	12.392110809	29.55
H	-1.34535807984	0.284519412366	7.84215134133	29.55
H	6.34215202458	4.51570480637	1.09747711356	29.55
H	7.73998602496	9.3158419462	5.64743658119	29.55
H	-0.235679035791	6.48941332493	11.3236309682	29.87
H	-1.05720312351	1.68929795482	8.91059852747	29.87
H	6.63030698091	3.11093714878	2.16594606942	29.87
H	7.45182018377	7.91106340375	4.57898939505	29.87
H	1.18115993395	6.47228055187	12.4206726873	28.84
H	-2.47403120839	1.67216518176	7.81353503867	28.84
H	5.21346801117	3.1280808067	1.06891523521	28.84
H	8.86865915351	7.92819617681	5.67605288384	28.84
C	1.89630626364	6.18541000927	9.65821440103	69.00
C	-3.18917753808	1.38520756026	10.5761348282	69.00
C	4.49832168148	3.41494046444	3.83137352149	69.00
C	9.5838054832	8.21515379831	2.91344220949	69.00
H	2.70076288748	5.7476317375	9.04259925105	24.14
H	6.89132597584	0.947287785279	11.1917935176	24.14
H	3.69385417278	3.85271873621	4.44698867146	24.14
H	-0.496698030724	8.65306268843	2.29779440493	24.14
C	0.737362333391	7.71434128968	8.09690065565	7.61
C	-2.03035334132	2.91408441636	12.1373506098	7.56
C	5.65725472687	1.88602006889	5.39268726686	7.61
C	8.42498128644	6.68626605735	1.35222642788	7.56
C	1.77003097756	8.70414534661	8.51050364854	47.44
C	-3.06303287035	3.90391024302	11.7240741628	47.46
C	4.62459696756	0.896216011958	4.97908427398	47.44
C	9.45764993061	5.69645111555	1.7655028749	47.46
C	2.5726154051	8.46908674796	9.64197418666	1.11
C	7.01914691235	3.6687863352	10.5926362792	1.11
C	3.82200165516	1.13127461061	3.84760285099	1.11
C	-0.624518967233	5.93156413851	2.8969516433	1.11
C	3.47852982926	9.4378830209	10.1001506902	47.85
C	6.11316717902	4.63756083841	10.1345250849	47.85
C	2.91609811586	0.162478337671	3.38943723236	47.85
C	0.281460766095	4.9627896353	3.35505195275	47.85
H	4.08481665235	9.2317019616	10.9811387799	22.66
H	5.50689124079	4.43135800938	9.25354787998	22.66
H	2.30981129277	0.368648512109	2.50843825772	22.66
H	0.887736704325	5.16900334919	4.23604004253	22.66
C	3.60426087223	1.02902221534	9.40319296515	35.61
C	5.98751233009	5.82910493087	10.8313630764	35.61
C	2.79036707289	8.57133914323	4.0863840725	35.61
C	0.40710473017	3.77124554284	2.6582248461	35.61
H	4.32040860924	1.78622765248	9.71700354163	22.15
H	5.27144078711	6.58635390745	10.5174763059	22.15
H	2.07421933588	7.81413370609	3.77257349602	22.15
H	1.12318715801	3.01400745112	2.97210073175	22.15
C	2.82082291725	1.24770998128	8.26142534741	22.89
C	6.77108090341	6.04786889084	11.9730436153	22.89
C	3.57380502787	8.35265137729	5.2281625751	22.89
C	-0.376452958288	3.55249246773	1.51654430725	22.89
C	1.89995269247	0.301401833598	7.81662633953	42.34
C	-3.19291104581	5.1015498583	12.4178317383	42.34
C	4.49467525265	9.29895952497	5.67296158298	42.34
C	9.58753899093	4.49880061541	1.07174529938	42.34
H	1.27186349045	0.490700471666	6.94822115043	22.89
H	-2.56474564975	5.29094646012	13.2861933879	22.89
H	5.12276445467	9.10965000204	6.54135588722	22.89
H	8.95937359487	4.30940401358	0.203394534583	22.89
56
Lattice="5.581049788 0.0 0.0 2.51168448449 9.52654503038 0.0 0.433134111947 4.62257704056 10.2836088531" Properties=species:S:1:pos:R:3:CS:R:1 ENERGY=-740.89197050 Natoms=56 NAME=DAGMEF
C	3.82753417406	2.52258427473	1.89519614386	90.88
C	4.69833421038	11.6265377962	8.38841270921	90.88
C	3.99417873968	3.96541400907	4.31558581592	122.12
C	4.53168964476	10.1837080619	5.96802303715	122.12
C	2.69997794224	4.31710386146	3.58409436336	127.40
C	5.8258904422	9.83201262842	6.69951448971	127.40
C	4.87529813706	2.56656852811	0.820525939832	28.20
C	3.65057582843	11.5825535428	9.46307733219	28.20
C	5.33709652072	6.38900720371	10.0180122747	37.70
C	3.18877186372	7.76010928618	0.265596578361	37.70
C	6.28605915932	6.46910643027	8.90746150159	28.71
C	2.23980922512	7.68001005962	1.37614735148	28.71
C	1.87694053	7.2499957545	8.9297131471	39.54
C	6.64892785444	6.89912073538	1.35389012492	39.54
C	2.73084114757	7.30152000615	7.82427461559	34.21
C	5.79503281792	6.84760206479	2.45933423748	34.21
C	2.41863164138	6.58029768519	6.66359485328	39.88
C	6.10723674306	7.56882438574	3.62001399979	39.88
C	1.26012848848	5.8021709806	6.62153606208	35.28
C	7.26573989596	8.34694550929	3.66206720994	35.28
C	5.99846766374	5.73260877604	7.7346206318	35.10
C	2.52740072069	8.41651329489	2.54898264023	35.10
C	2.80346176741	1.39359929416	1.82171604235	143.55
C	5.72241219808	12.7555227768	8.46189281072	143.55
S	3.0169034355	4.17444106678	1.81039209233	297.22
S	5.50896494894	9.97467542311	8.47321676074	297.22
S	4.66170019957	2.43113877395	3.57691713333	279.26
S	3.86416818487	11.717983297	6.70669171974	279.26
H	4.73861822775	4.77481133563	4.22955951449	27.35
H	3.78725015669	9.37430515426	6.05404933858	27.35
H	3.79172057757	3.76138199092	5.377146134	26.59
H	4.73414780687	10.38774008	4.90645713802	26.59
H	2.39255697677	5.35640137193	3.77069676302	28.89
H	6.13331698872	8.792720699	6.512906509	28.89
H	1.87197339569	3.6473555627	3.89252549884	27.43
H	6.6539005698	10.5017665082	6.39107777318	27.43
H	5.62883473628	3.35168270703	0.954755768283	23.83
H	2.89703364815	10.7974337829	9.32885308479	23.83
H	4.56912174569	5.61888372451	9.9103761485	25.50
H	3.95674663875	8.53023834642	0.373232704573	25.50
H	2.12668134592	7.8306984039	9.81856229844	22.42
H	6.39918703852	6.31842366704	0.465046554635	22.42
H	3.6211357908	7.93267534562	7.86700313277	23.31
H	4.90473259364	6.21644114426	2.4166057203	23.31
H	3.08843575063	6.61285194861	5.80275140978	23.95
H	5.43743821486	7.53627012233	4.48085744329	23.95
H	1.0254788312	5.2242253698	5.72737933239	23.45
H	7.50038955324	8.92489112008	4.55622952068	23.45
H	5.1203118038	5.08644599369	7.727917791	24.21
H	3.40555658064	9.06267607725	2.55569106207	24.21
H	2.28117596615	1.40417538351	0.852477449868	29.28
H	6.24469241829	12.7449466874	9.4311314032	29.28
H	5.80368344509	9.94468286154	1.96577968053	31.30
H	2.72218493935	4.20443920939	8.31782917254	31.30
H	2.049567981	1.52987178684	2.61374514197	29.52
H	6.47630598449	12.6192502841	7.6698637111	29.52
160
Lattice="13.175470722 0.0 0.0 0.0 12.8893653753 0.0 -1.20094415631 0.0 9.56012155588" Properties=species:S:1:pos:R:3:CS:R:1 ENERGY=-2285.63560523 Natoms=160 NAME=EZUMUJ
S	5.06943364141	10.8293014751	1.34099941009	127.10
S	7.50578898544	4.38432233934	3.43961473763	127.10
S	6.90509292428	2.06006390021	8.2191221458	127.10
S	4.46873758025	8.50505621141	6.12049364279	127.10
O	1.71881920851	12.0201532208	0.758525024936	219.10
O	10.8563770674	5.57717675662	4.02178608695	219.10
O	10.2557073572	0.869212154472	8.80159653095	219.10
O	1.11814949829	7.31218861865	5.53832229346	219.10
C	2.46719912099	10.8826226051	0.621131216247	21.33
C	10.1082343134	4.43934310507	4.15889003528	21.35
C	9.5073274447	2.0067427702	8.93897716417	21.33
C	1.8662922523	8.45003544567	5.40121834513	21.35
N	3.81254643641	11.0718355401	0.172545964575	57.71
N	8.76280794514	4.62834523258	4.60767291901	57.66
N	8.16198012928	1.81754301063	9.38756241584	57.71
N	3.21171862055	8.26102014269	4.95244863687	57.66
O	4.8564916836	9.52124074178	1.91288071677	95.97
O	7.71919208472	3.0759717457	2.86852395918	95.99
O	7.11803488209	3.36812463349	7.64722766364	95.97
O	4.25533448097	9.81339362957	6.69158442123	95.99
O	6.29946923707	11.1277127114	0.633753317199	94.95
O	6.27575338977	4.68262817195	4.14687400598	94.98
O	5.67505732862	1.76165266383	8.92636823868	94.95
O	5.69878635139	8.20673720332	5.4132475499	94.98
C	5.12770874841	0.501761451506	2.31167586459	40.46
C	7.44667064831	6.94552844393	2.4680028247	40.46
C	6.84681781728	12.3876039238	7.24843251583	40.46
C	4.52785591738	5.94383693135	7.09210555571	40.46
H	5.60381755842	0.778314581961	1.37014355132	22.27
H	6.97040373265	7.22213427626	3.40936385685	22.27
H	6.37070900727	12.1110639688	8.18997800456	22.27
H	5.00412283304	5.66723109901	6.15075769903	22.27
C	4.78396071728	12.0588364028	2.57676633551	29.25
C	7.79076124168	5.6132775464	2.20316268772	29.25
C	7.19056584841	0.830528972432	6.98335522037	29.25
C	4.18376532401	7.27608782887	7.35694569269	29.25
C	4.8644101415	1.46264853126	3.28253677568	32.87
C	7.71000878163	7.90629694445	1.49693110608	32.87
C	7.11011642419	11.426716844	6.27757160473	32.87
C	4.26451778406	4.9830816063	8.0631904498	32.87
H	5.14801214879	2.49872802243	3.10088656083	22.97
H	7.42611691398	8.94228420732	1.67839686433	22.97
H	6.82651441689	10.3906373528	6.45923499505	22.97
H	4.54840965171	3.94708116796	7.88172469155	22.97
C	4.27188287219	1.11880827183	4.5093048546	20.54
C	8.30293131506	7.56228540389	0.270492413923	20.57
C	7.7026436935	11.7705702789	5.05081670128	20.54
C	3.67159525063	5.32709314685	9.28962914196	20.57
C	0.663108265968	9.31827261531	1.41953839106	30.75
C	11.9122724665	2.87487453607	3.3603774567	30.74
C	11.3114182997	3.57109275996	8.14058316482	30.75
C	0.0622540991614	10.0145040147	6.19973092371	30.74
C	1.99330379006	9.65420759231	0.921176210999	54.33
C	10.5821296443	3.21129700549	3.85880551412	54.37
C	9.98122277563	3.23517095843	8.63893216941	54.33
C	1.39239692137	9.67806836979	5.70131604177	54.37
H	2.68610956704	8.82919914211	0.760488170074	24.50
H	9.88933704281	2.38609092322	4.01948037957	24.50
H	9.28841699865	4.06017940863	8.79963338581	24.50
H	2.08518952288	10.503274452	5.54064117631	24.50
C	3.95509185415	12.6636168599	4.74978354622	36.02
C	8.61999901799	6.2177813186	0.0302640562484	36.00
C	8.01943471154	0.225761690821	4.81032483419	36.02
C	3.3545275477	6.67158405667	9.52985749963	36.00
H	3.53496561924	12.3669316102	5.71380638801	23.52
H	7.83940507959	5.92099066511	8.62653405146	23.51
H	8.43956094645	0.522433765069	3.8463019924	23.52
H	4.1351214861	6.96837471016	0.933587504419	23.51
C	4.19543879107	11.6845081042	3.78701237415	38.46
C	8.37954667731	5.23867256283	0.993193333966	38.47
C	7.77908777462	1.20485727111	5.77309600626	38.46
C	3.59497988838	7.65070598791	8.56692822192	38.47
H	3.95460436174	10.6384020798	3.97349798675	22.62
H	8.62063144058	4.19259288939	0.806892177957	22.62
H	8.01992220395	2.2509632955	5.58661039366	22.62
H	3.35389512511	8.69678566135	8.75321620246	22.62
C	3.97805669962	2.18656159461	5.52589782457	149.84
C	7.39593191056	8.62982791914	8.81384971872	149.83
C	7.99646986607	10.7028169561	4.03421055584	149.84
C	4.57859465513	4.2595506316	0.746271837165	149.83
H	4.76256375282	2.95602226025	5.52763698671	27.75
H	6.61150391018	9.39935446213	8.81201832829	27.76
H	7.21196281287	9.9333562905	4.03248456918	27.75
H	5.36302265551	3.49001091314	0.748090052124	27.76
H	3.88561759704	1.76849073313	6.53761587037	28.85
H	7.48838418861	8.2116516539	7.8021843748	28.85
H	8.08890896865	11.1208746421	3.02250568551	28.85
H	4.48614237708	4.67771372137	1.75792400561	28.85
H	3.030160634	2.69414660418	5.27901585418	28.92
H	8.34386750259	9.13738657777	9.0606921627	28.92
H	8.94436593169	10.1952187711	4.2811057017	28.92
H	3.6306590631	3.7519787975	0.499416217717	28.92
C	-0.110726655948	10.1913451827	2.2102379155	36.81
C	12.6865553544	3.74786805064	2.57000731903	36.81
C	12.0852532216	2.69802019257	7.34988364038	36.81
C	-0.712028788758	9.14149732463	6.99011423685	36.81
H	0.298042323202	11.1616395486	2.48405054804	23.73
H	12.2783529205	4.7185181542	2.29657677514	23.73
H	11.6764842425	1.72772582672	7.07607100784	23.73
H	-0.303826354849	8.17086039654	7.26354478074	23.73
C	2.81820683649	12.1517629978	8.83877770932	39.63
C	8.55574224727	5.70844397143	5.50115429056	39.62
C	9.1563197292	0.73760237743	0.721330671088	39.63
C	3.41878431842	7.18092140385	4.05896726533	39.62
H	3.82457564118	12.2221463624	8.43272287714	22.93
H	7.54933391617	5.77884051149	5.90690608691	22.93
H	8.14995092451	0.667219012833	1.12738550327	22.93
H	4.42519264952	7.11052486378	3.65321546897	22.93
C	11.2590326281	8.57551862883	2.31618187557	41.23
C	1.31595284024	2.13100063458	2.46353634013	41.24
C	0.715493937558	4.31384674644	7.24393968031	41.23
C	10.6585737254	10.7583647407	7.09657204028	41.24
H	10.2608589662	8.28777952373	2.64813786041	25.24
H	2.31403427385	1.84299802006	2.13156717982	25.24
H	1.71366759946	4.60158585154	6.91197052	25.24
H	9.66049229184	11.0463805307	7.42855437607	25.24
C	0.473895330929	12.8619076943	9.13584504769	98.60
C	10.9002777358	6.41839103581	5.20500923514	98.60
C	11.5006312348	0.0274708564554	0.42427650819	98.60
C	1.07424882985	6.47097433946	4.35511232074	98.60
H	0.121583243823	0.951058178597	9.49428372869	27.60
H	11.2533803512	7.39682784257	4.84722932768	27.60
H	11.8529433219	11.9383203721	0.0658378271978	27.60
H	0.721159389969	5.4925375327	4.71287905273	27.60
H	-0.285881363726	12.4592521336	8.44106295011	28.28
H	11.6594878853	6.01483954307	5.89992308743	28.28
H	12.2604211049	0.43012641719	1.11905860577	28.28
H	0.315038680434	6.87452583221	3.66018529298	28.28
C	0.124007530435	8.04889506407	1.11961197554	38.03
C	12.4507539549	1.60515442259	3.65996130998	38.03
C	11.8505190353	4.8404703112	8.44049640487	38.03
C	-0.476214213776	11.2842109527	5.90014707043	38.03
H	0.718142207173	7.34602322746	0.531696120986	23.76
H	11.8561844877	0.902361638808	4.24754777777	23.76
H	11.2563843585	5.54334214781	9.0284254349	23.76
H	0.118342078025	11.9870037365	5.31256060264	23.76
C	1.8156193919	0.0808842147624	8.49633404979	57.98
C	9.55831651639	6.52708866927	5.84391416139	57.99
C	10.1589071738	12.8084811605	1.06378750609	57.98
C	2.4162100493	6.36228988148	3.71620739449	57.99
H	1.97414665563	0.851754655765	7.7441332508	25.54
H	9.39947304137	7.29790640839	6.59599638114	25.54
H	10.0003799101	12.037623895	1.81597512961	25.54
H	2.57505352432	5.59145896689	2.96412517474	25.54
C	11.7976458712	9.8189141518	2.6583620257	38.32
C	0.777919317839	3.37471236885	2.12163287489	38.31
C	0.176880694443	3.07045122347	6.90175953019	38.32
C	11.1966072479	9.51465300642	7.43847550552	38.31
H	11.2366475034	10.5014298861	3.29978346685	24.75
H	1.33922072154	4.05709634848	1.48034318844	24.75
H	0.737879062315	2.3879486646	6.26033808903	24.75
H	10.6353058442	8.83226902679	8.07977836744	24.75
C	12.0219977867	7.68952092466	1.54744586083	38.78
C	0.552618768493	1.24530596623	3.23219330205	38.79
C	-0.0474712210114	5.19984445062	8.01267569506	38.78
C	11.4219077972	11.6440725845	6.32792825383	38.79
H	11.608986306	6.71145303108	1.2954518078	24.05
H	0.965221809623	0.267053616064	3.48414782867	24.05
H	0.365540259711	6.17792551966	8.26465657261	24.05
H	11.0093047561	12.6223249347	6.07596055175	24.05
168
Lattice="9.804329532 0.0 0.0 0.0 10.0786350636 0.0 -0.114896937786 0.0 17.1428701867" Properties=species:S:1:pos:R:3:CS:R:1 ENERGY=-2217.88263881 Natoms=168 NAME=NILSAE01
C	0.594632586116	3.87456318342	1.45481543761	13.00
C	4.25008861316	8.91388071524	7.11661965575	13.00
C	9.09480981243	6.20407188022	15.6880547491	13.00
C	5.43934398106	1.1647543484	10.0262407266	13.00
N	1.10453615642	5.0203853715	1.91369727702	-77.99
N	3.74017523853	10.059693099	6.657728012	-77.99
N	8.5848964378	5.05824969215	15.2291631054	-77.99
N	5.94925735569	0.0189321603263	10.4851323704	-77.99
N	2.46369075078	4.82816168669	1.95753243436	11.88
N	2.38102064416	9.86746941419	6.61390265899	11.88
N	7.22574184344	5.25047337695	15.1853377523	11.88
N	7.30841195005	0.211155845131	10.5289577234	11.88
C	2.79714580249	3.55579501735	1.54673102697	35.07
C	2.04757539678	8.59510274484	7.02470406638	35.07
C	6.89229659605	6.5228400463	15.5961391597	35.07
C	7.64185719743	1.48352251448	10.118156316	35.07
C	1.61072388582	2.9185920324	1.19754983069	46.52
C	3.23399731345	7.95790956423	7.37388526266	46.52
C	8.07871851272	7.16004303124	15.945320356	46.52
C	6.45543528077	2.12072549942	9.76898492404	46.52
C	1.47844387178	1.48454216475	0.778404938864	137.97
C	3.36627732749	6.52385969657	7.79302035016	137.97
C	8.21098872244	8.5940928989	16.3644554435	137.97
C	6.32315526672	3.55477536708	9.34984003221	137.97
C	1.29775988283	1.27588642365	16.4086141437	41.00
C	3.43206437865	6.31520395547	9.30569113633	41.00
C	8.39168251571	8.80273883567	0.734256042981	41.00
C	6.25736821556	3.76343110818	7.83717905037	41.00
C	0.722510456202	2.22325917766	15.5508921789	33.37
C	4.00731380528	7.26256690516	10.1634032968	33.37
C	8.96692213801	7.85537588598	1.59197800776	33.37
C	5.68211878893	2.81605835416	6.97945708559	33.37
C	0.669420011786	2.03057468937	14.1698347124	44.66
C	4.0604042497	7.0698922212	11.5444607633	44.66
C	9.02001258243	8.04806037427	2.97302566997	44.66
C	5.62902834451	3.00874284245	5.59840942339	44.66
C	1.20950130839	0.868614574888	13.6110467551	38.33
C	3.5203229531	5.90793210671	12.1032487207	38.33
C	8.47993128583	9.21001068443	3.53181362731	38.33
C	6.16911944544	4.17069315261	5.03962146604	38.33
C	1.79758460237	9.99263148499	14.4366497363	51.08
C	2.93223965911	4.95331395317	11.2776555438	51.08
C	7.89184799184	0.0860035786547	2.70622045041	51.08
C	6.75720273943	5.12531130615	5.86521464294	51.08
C	1.84027265316	0.11165170471	15.8255604708	13.07
C	2.88955160833	5.15096923653	9.88873500494	13.07
C	7.84915994106	9.96697355461	1.31729991159	13.07
C	6.79989079021	4.92765602278	7.25412537743	13.07
O	2.47628931423	9.21087346543	16.5392862477	197.78
O	2.25353494726	4.1715559336	9.175009228	197.78
O	7.21314327999	0.867761598218	0.603574134649	197.78
O	7.43589764695	5.90707913004	7.96785115437	197.78
C	2.48860355212	9.28570991275	0.833838618038	99.64
C	2.35611764715	4.24639238092	7.73759647531	99.64
C	7.20083884643	0.7929251509	16.3090217643	99.64
C	7.33331494706	5.83224268272	9.40527371139	99.64
C	2.63379586816	0.636163726013	1.35276217151	143.01
C	2.21092533111	5.67548125784	7.21867292184	143.01
C	7.05564653039	9.4424615333	15.7901080152	143.01
C	7.4785072631	4.40315380581	9.92418746053	143.01
C	3.99801930089	1.20754044248	0.964265613802	141.75
C	0.846701898384	6.24684816997	7.60716947955	141.75
C	5.69141329333	8.87109462117	16.1786045729	141.75
C	8.84273069583	3.83177708934	9.53569090282	141.75
S	4.38575112089	2.84168687155	1.67843258557	428.79
S	0.458970078382	7.88100440338	6.89300250778	428.78
S	5.30368147332	7.23693838776	15.4644376011	428.79
S	9.23047232016	2.19762085594	10.2498676789	428.78
C	8.92494980329	3.70284035167	1.31321150618	160.19
C	5.72409112366	8.74214807916	7.25822358718	160.19
C	0.764482790928	6.37579471198	15.8296586805	160.19
C	3.96534147056	1.33647718015	9.8846367952	160.19
C	3.29027416496	5.87597979677	2.43784653813	24.94
C	1.55443722998	0.836662264943	6.13358855522	24.94
C	6.39915842925	4.20265526688	14.7050236486	24.94
C	8.13499536423	9.24196299437	11.0092816315	24.94
C	4.58340640426	6.06441901037	1.93148233079	48.15
C	0.261304990687	1.02510147855	6.63995276256	48.15
C	5.10602618996	4.01421605328	15.2113878559	48.15
C	9.42812760353	9.05352378077	10.5029076198	48.15
C	5.38369460663	7.09202059295	2.43737593031	38.34
C	9.26535612464	2.05270306113	6.13404935871	38.34
C	4.30574779191	2.9866144707	14.7054844521	38.34
C	0.424076469577	8.02592219819	11.0088110237	38.34
C	4.8906446788	7.95020336121	3.42364245959	40.03
C	-0.0459234795279	2.91088582939	5.14778282944	40.03
C	4.79879771974	2.12843170243	13.7192179228	40.03
C	9.73535607374	7.16773942993	11.9950775529	40.03
C	3.58481583276	7.7845690181	3.8938777126	37.18
C	1.25990536651	2.74525148628	4.67755738075	37.18
C	6.10461676145	2.29406604555	13.2489924741	37.18
C	8.42953703203	7.33338357737	12.465312806	37.18
C	2.78614534476	6.74891808098	3.41275965381	44.15
C	2.05857585452	1.70960054915	5.15867543955	44.15
C	6.90328724946	3.32971698267	13.7301105329	44.15
C	7.63086654403	8.36903451449	11.9841849428	44.15
H	0.542120597142	1.09600638972	1.21646238235	28.17
H	4.30260060213	6.13532392155	7.354972711	28.17
H	9.14731199707	8.98262867392	15.9264078043	28.17
H	5.38683199208	3.9433111421	9.78788767137	28.17
H	0.31088548513	3.14313078735	15.9669683156	22.84
H	4.41893877636	8.18244831917	9.7473271601	22.84
H	9.37854710908	6.93549447197	1.17589206675	22.84
H	5.27050362219	1.89617694015	7.3955430266	22.84
H	0.212342169004	2.79003766358	13.5359848082	23.37
H	4.51748209248	7.8293551954	12.1783106676	23.37
H	9.47709042521	7.28859740007	3.60687557421	23.37
H	5.17196030606	2.24927986824	4.96455951914	23.37
H	1.17223505183	0.704656772124	12.5328058104	23.92
H	3.55758920965	5.74397430395	13.1814994696	23.92
H	8.51719754238	9.37396848719	4.61006437625	23.92
H	6.13185318889	4.33465095537	3.9613707171	23.92
H	2.23297526823	9.08120140304	14.023769811	24.60
H	2.49684899326	4.04188387121	11.6905256647	24.60
H	7.45645732598	0.997433660608	3.11909057133	24.60
H	7.19258360096	6.03675119243	5.45234452202	24.60
H	2.54602751019	0.601377964834	2.44908229978	30.12
H	2.29869368908	5.64068569233	6.12235279358	30.12
H	7.14341488836	9.47725709881	14.6937878869	30.12
H	7.39073890513	4.43793956699	11.0205173931	30.12
H	1.51122954973	8.87817334709	1.14160632638	27.87
H	3.33349164954	3.8388656196	7.42982876697	27.87
H	8.17821284881	1.20045191223	16.0012638603	27.87
H	6.35594094468	6.23976944405	9.7130316154	27.87
H	3.28257776628	8.63026107054	1.21381521338	29.70
H	1.56214343299	3.59094353872	7.35761987997	29.70
H	6.40685482794	1.4483739931	15.9290549733	29.70
H	8.12728916122	6.48769152493	9.78525030673	29.70
H	4.81241593346	0.5683667873	1.32466296307	28.78
H	0.0323052658079	5.60768431912	7.24677213028	28.78
H	4.87702646508	9.51025847202	15.8182072236	28.78
H	9.65712732841	4.47095074452	9.89608825209	28.78
H	4.08627787534	1.29051448331	-0.128260238938	28.26
H	0.758433519607	6.32983201513	8.69969533229	28.26
H	5.60315471888	8.78811077601	17.2711304256	28.26
H	8.93099907461	3.74879324419	8.44316505008	28.26
H	8.63670251505	3.53935315672	0.264765919012	28.64
H	6.01234821623	8.57867068855	8.30666917434	28.64
H	1.05273007917	6.53928190692	16.8781042677	28.64
H	3.67708437799	1.4999643751	8.83620101236	28.64
H	8.5739744147	2.83226491087	1.887960912	28.86
H	6.07507631657	7.8715824427	6.68347418135	28.86
H	1.11546798384	7.24636034844	15.2549092747	28.86
H	3.61435627764	2.20704281662	10.4593960054	28.86
H	8.40631057537	4.59833839813	1.67970714841	28.99
H	6.2427401559	9.63764612563	6.89172794494	28.99
H	1.28312201884	5.48029666551	15.4631630383	28.99
H	3.44670224265	0.44097913369	10.2511422418	28.99
H	4.95575523122	5.42177462254	1.13518449053	22.49
H	9.69329550005	0.382457090714	7.43625060282	22.49
H	4.73367736299	4.65685063678	16.0076856962	22.49
H	-0.00386290583561	9.6961681686	9.70661958388	22.49
H	6.39663871656	7.2307420515	2.05533062144	25.14
H	8.25241201471	2.191434324	6.51609466758	25.14
H	3.29279387765	2.84788320782	15.0875297609	25.14
H	1.43703038383	7.88720073964	10.6267657148	25.14
H	5.52376906266	8.74431483599	3.81764905049	24.61
H	9.12528166861	3.70499730417	4.75378604286	24.61
H	4.16566353156	1.33431042333	13.3252211362	24.61
H	0.56416072993	6.37362795515	12.3890743395	24.61
H	3.19076022021	8.46087166922	4.64961504159	25.88
H	1.65396097906	3.42156394173	3.92182005177	25.88
H	6.498672374	1.6177535901	12.4932551451	25.88
H	8.03548141948	6.65707112192	13.2210501349	25.88
H	1.76882850386	6.61166727186	3.77225500476	23.00
H	3.07589269542	1.57234974004	4.7991800886	23.00
H	7.92061389469	3.46695798746	13.3706151819	23.00
H	6.6135398988	8.50627551928	12.3436900981	23.00
68
Lattice="4.869038098 0.0 0.0 0.0 13.9021067916 0.0 -1.63335778228 0.0 11.7258804757" Properties=species:S:1:pos:R:3:CS:R:1 ENERGY=-1310.13145170 Natoms=68 NAME=AVULUY
S	0.376756429947	6.67985771184	2.9531689872	415.19
S	1.24252983223	13.632483807	2.91194284162	415.52
S	2.85892388577	7.2222490798	8.77270661942	415.19
S	1.99315048349	0.269622984677	8.81393763404	415.52
O	2.36396668696	8.02826964654	4.18894546359	-26.05
O	4.12545807583	1.07849680775	1.67418953577	-26.18
O	0.871713628761	5.87383714509	7.53693501208	-26.05
O	-0.889777760105	12.8236099839	10.0516909399	-26.18
N	1.1024670823	9.28524104577	2.92133521611	-1.83
N	0.516200812036	2.33566783753	2.94325075659	-1.95
N	2.13320836438	4.61686574587	8.80454525955	-1.83
N	2.71947950369	11.5664389541	8.78262971907	-1.95
H	0.372793032935	9.61104299202	2.18158225789	14.03
H	1.24588946852	2.66110947497	3.68396778437	13.98
H	2.86288728279	4.29106866865	9.54429334874	14.03
H	1.9897908472	11.2409973167	8.0419126913	13.98
N	1.91585937272	10.1351316458	3.58227305465	-74.17
N	-0.296933419368	3.18540749736	2.28170428829	-74.18
N	1.319820943	3.76697514586	8.14360742101	-74.17
N	3.53261373509	10.7167041633	9.44417131833	-74.18
N	0.853337878979	10.8050674667	6.9469487967	-61.87
N	-0.867706410406	3.85290879925	10.6410149661	-61.98
N	2.38234243674	3.09703932492	4.77893167896	-61.87
N	4.10338672613	10.0492028614	1.08486550958	-61.98
C	1.28584479515	7.99240918095	3.30837018549	-12.41
C	0.333787168732	1.04296743674	2.5558165261	-12.43
C	1.94983552057	5.90970247972	8.41751029017	-12.41
C	2.90188827795	12.8591393549	9.17005908053	-12.43
C	2.67208428684	9.37470962082	4.33260643267	3.37
C	3.81692660771	2.42489782972	1.53048474534	3.37
C	0.563596028882	4.52739717082	7.39327404299	3.37
C	-0.581251161025	11.4772089619	10.1953957303	3.37
C	0.77797003826	9.49667415614	6.6213708262	14.70
C	-0.792523593135	2.54490988076	10.9688473012	14.68
C	2.45770540842	4.4054326355	5.10450964946	14.70
C	4.02820390886	11.3571969109	0.757033174439	14.68
H	1.56142748246	8.85380531798	7.03354463928	21.88
H	-1.57681364285	1.90173916224	10.5589327218	21.89
H	1.67424796423	5.04830147365	4.69233583639	21.88
H	4.81249395857	12.0003676294	1.16694775383	21.89
C	-0.225957451014	8.96200995164	5.8284041506	47.40
C	0.211769073996	2.01129251945	11.7621207262	47.36
C	3.46163776674	4.94010170904	5.89747632506	47.40
C	3.02391124172	11.8908142722	-0.0362402505634	47.36
H	4.61882309918	7.89345571969	5.62716193697	23.05
H	0.235690658172	0.943181369964	11.9657536376	23.05
H	-1.38314278346	6.00865594099	6.09871853869	23.05