12
Lattice="5.862308958 0.0 0.0 0.0 8.34111009087 0.0 0.0 0.0 10.9619139336" Properties=species:S:1:pos:R:3:CS:R:1 ENERGY=-268.4169017 NAME=CUZJEO pbc="T T T" Natoms=12
N       5.12021685       2.19617336       9.07279660      87.79000000 
H       5.61856001       2.60708018       9.86168751      21.99000000 
O       0.86629684       2.90667348       7.58893482    -104.46000000 
N       3.83143513       0.91092074       6.91209607    -117.65000000 
N       3.46847613       0.78622943       8.20504590     -39.73000000 
N       2.36151978       0.11297256       8.62910774    -144.09000000 
N       2.28246068       0.34786355       9.89896594    -184.48000000 
N       3.29358001       1.17596159      10.35717573     -85.45000000 
C       4.01342465       1.42709118       9.28350557      18.34000000 
C       5.67439264       2.32385444       7.79487187      16.62000000 
C       4.87323778       1.66528852       6.73055795      20.87000000 
H       5.21406070       1.79108781       5.70371005      23.63000000 
28
Lattice="10.470037972 0.0 0.0 -0.133660504751 9.00903840335 0.0 -1.64339810016 0.892110055442 3.28510005417" Properties=species:S:1:pos:R:3:CS:R:1 ENERGY=-509.5057473 NAME=DIOXAZ10 pbc="T T T" Natoms=28
C       0.10459568       0.71174271      -0.01405079      17.48000000 
C       8.58838369       9.18940575       3.29916132      17.48000000 
C       1.10992873       1.49042038      -0.54358343      50.23000000 
C       7.58305064       8.41072808       3.82868349      50.23000000 
C       0.69614235       2.80758256      -0.21146336      17.83000000 
C       7.99683701       7.09356590       3.49656341      17.83000000 
C       3.65529966       4.75846474       3.07474652      11.15000000 
C       5.03767971       5.14268372       0.21036400      11.15000000 
C       6.41123352       3.30560039      -0.70773269      49.72000000 
C       2.28174585       6.59554807       3.99283274      49.72000000 
C       5.99580336       2.00126400      -1.10502875       9.82000000 
C       2.69717601       7.89988446       4.39012880       9.82000000 
H       2.08769416       1.14354802      -0.82972957      24.79000000 
H       6.60528521       8.75760044       4.11482962      24.79000000 
H       1.16773381       3.75899491      -0.45313277      22.19000000 
H       7.52524556       6.14215355       3.73823283      22.19000000 
H       7.39138613       3.75789556      -0.78989107      24.67000000 
H       1.30159324       6.14325290       4.07499113      24.67000000 
H       6.60738968       1.18185789      -1.45809937      23.67000000 
H       2.08558968       8.71929057       4.74319942      23.67000000 
N       8.41605733       3.71601541       3.74736270    -166.97000000 
N       0.27692203       6.18513305      -0.46226265    -166.97000000 
N       3.08826334       2.67396394       2.51413881    -146.42000000 
N       5.60471603       7.22718452       0.77096125    -146.42000000 
O       8.01449997       2.35839699       3.86781002     -75.05000000 
O       0.67847940       7.54275147      -0.58270996     -75.05000000 
O       2.63104725       3.81838097       3.09377058     -80.43000000 
O       6.06193211       6.08276749       0.19133994     -80.43000000 
46
Lattice="8.317069142 0.0 0.0 0.973438089449 8.59713812829 0.0 0.8468273459 0.537806641929 11.8306399522" Properties=species:S:1:pos:R:3:CS:R:1 ENERGY=-523.2941464 NAME=QAHVUQ pbc="T T T" Natoms=46
O       9.14857645       8.18633313       7.27109789     132.47000000 
N       2.12381351       7.90861788       6.69199700     -76.12000000 
N       2.53766255       7.29035191       9.91921944    -159.91000000 
N       3.25161640       8.45172249       9.75603854     -87.86000000 
N       4.08447939       6.79151905       7.12572384     145.60000000 
N       3.30431335       1.51025500      11.01767971     109.75000000 
C       2.82416063       7.15822695       7.49344642      11.24000000 
C       2.33097507       6.62961898       8.81601012       9.95000000 
C       3.52963107       9.00470778      10.91444825      12.87000000 
C       1.67707877       5.31755974       8.84965266      30.32000000 
C       9.49436691       4.77124474      10.05240067      44.69000000 
C       8.94467518       3.49310250      10.08107792      39.35000000 
C       8.88926686       2.71093205       8.91818531      35.60000000 
C       9.36118569       3.25159977       7.71674309      37.83000000 
C       1.57966094       4.53818383       7.67845131      39.19000000 
C       4.71065489       7.26526763       5.89725946     125.34000000 
C       6.02100913       6.47216023       5.84161827     145.29000000 
C       6.36576828       6.25383717       7.32129140     146.12000000 
C       4.99978116       6.03206252       7.98098470     121.63000000 
C       2.86308452       1.56291868       0.46663748     120.64000000 
C       3.48693124       2.89859008       0.05150761     147.20000000 
C       4.95294775       3.11198944      10.51398969     145.69000000 
C       3.91127642       2.19335252       9.86626466     124.88000000 
H       8.74538157       8.70956827       6.56003007      26.91000000 
H       2.32998533       8.02610480       0.02787882      22.36000000 
H       9.56135259       5.37310113      10.95847050      22.52000000 
H       8.57873245       3.08664733      11.02634610      23.93000000 
H       8.50287247       1.69147562       8.93905284      23.29000000 
H       1.02137768       2.64490284       6.80991641      23.35000000 
H       1.95062718       4.94601963       6.73722522      23.30000000 
H       4.88640288       8.35630076       5.95176121      27.95000000 
H       4.04490677       7.08875447       5.03830583      27.23000000 
H       6.81387533       7.00557546       5.30081748      28.87000000 
H       5.85608997       5.50814538       5.33622324      29.45000000 
H       6.83819444       7.15882578       7.72900245      29.51000000 
H       7.05579392       5.41754755       7.48859757      30.20000000 
H       4.72290593       4.96193850       7.99288642      28.31000000 
H       4.97176927       6.41102146       9.01288346      28.05000000 
H       3.61375823       0.92293685       0.96362395      27.57000000 
H       1.99858340       1.66720641       1.13754218      27.13000000 
H       4.21961513       3.25561691       0.78629572      29.16000000 
H       2.70416196       3.66183088      -0.06436580      29.24000000 
H       5.90490285       2.57257761      10.64256326      29.69000000 
H       5.15165085       4.00668984       9.91420425      29.68000000 
H       3.13111870       2.75017198       9.32643697      30.53000000 
H       4.33389166       1.44890830       9.17706241      28.06000000 
58
Lattice="3.717701172 0.0 0.0 0.598404898346 9.60768488041 0.0 0.123609846268 1.86303671752 14.0985043173" Properties=species:S:1:pos:R:3:CS:R:1 ENERGY=-1136.10980771 NAME=ZACSOO pbc="T T T" Natoms=58
O       0.15682007       1.61837852       5.20676689    -153.72000000 
O       4.28289585       9.85234679       8.89174114    -153.72000000 
O       1.93302244       2.19265182       4.05866270    -219.45000000 
O       2.50668976       9.27807349      10.03984162    -219.45000000 
N       1.07154929       1.35074121       4.37295344    -107.93000000 
N       3.36816663      10.11998038       9.72555088    -107.93000000 
N       1.64415706       9.69971657       3.88157000     -36.34000000 
N       2.79555514       1.77100874      10.21693431     -36.34000000 
C       2.56199800       9.36758459       2.96205610      17.98000000 
C       1.87771792       2.10314073      11.13644821      17.98000000 
N       2.92336599       0.46544875       2.42333890    -139.68000000 
N       1.51634993      11.00527285      11.67516542    -139.68000000 
O       4.16754301       9.21691731       1.52175919    -104.56000000 
O       0.27217290       2.25380801      12.57674513    -104.56000000 
N       3.53540741       7.96654288       1.48446692    -139.47000000 
N       0.90430479       3.50418244      12.61403739    -139.47000000 
C       2.57308418       8.02979956       2.36776298      19.59000000 
C       1.86663173       3.44092576      11.73074134      19.59000000 
N       1.65454060       7.12120455       2.71140497     -33.36000000 
N       2.78517160       4.34952077      11.38710306     -33.36000000 
N       1.69084023       5.90575420       2.11708583    -103.87000000 
N       2.74887196       5.56496740      11.98141849    -103.87000000 
O       2.57245217       5.58263020       1.28784515    -196.02000000 
O       1.86726003       5.88809512      12.81065917    -196.02000000 
O       0.77780257       5.11729298       2.46118509    -179.30000000 
O       3.66191335       6.35343234      11.63731922    -179.30000000 
N       3.53950804       2.82794375       0.93826227     206.55000000 
N       0.90020416       8.64278157      13.16024205     206.55000000 
H       3.17363048       2.04894408       1.55273507      21.60000000 
H       1.26608544       9.42178123      12.54576925      21.60000000 
H       0.33321384       2.41943531       0.11061648      21.68000000 
H       4.10650208       9.05129001      13.98788784      21.68000000 
H       2.78922389       3.41163027       0.57100544      26.16000000 
H       1.65049202       8.05909505      13.52749888      26.16000000 
H       0.40763106       3.46608344       1.50003294      23.81000000 
H       4.03208114       8.00463816      12.59847138      23.81000000 
N       2.72223835       8.24031439       6.21692207     203.79000000 
N       1.71747756       3.23041093       7.88158225     203.79000000 
H       2.15367544       8.64534306       5.44554369      24.44000000 
H       2.28603676       2.82538225       8.65296063      24.44000000 
H       3.46900927       7.56981955       5.78986973      15.75000000 
H       0.97070665       3.90090205       8.30863830      15.75000000 
H       2.11894840       7.72875127       6.88303002      23.74000000 
H       2.32076752       3.74197404       7.21547430      23.74000000 
H       3.21799380       8.99643904       6.70354684      27.99000000 
H       1.22172211       2.47428256       7.39496119      27.99000000 
O       3.17716973       4.29988946       5.55129370     266.29000000 
O       1.26254247       7.17083586       8.54721434     266.29000000 
H       3.60812193       3.43128576       5.35776876      24.35000000 
H       0.83159027       8.03943584       8.74073556      24.35000000 
H       2.43907221       4.28999294       4.92625519      28.53000000 
H       2.00064371       7.18073238       9.17224913      28.53000000 
O       0.81405387       6.65248794       5.29825208     235.30000000 
O       3.62566204       4.81823738       8.80025223     235.30000000 
H       0.34300626       5.77709571       5.28878310      23.32000000 
H       4.09670965       5.69362960       8.80972122      23.32000000 
H       1.05776777       6.86051562       4.34139016      22.60000000 
H       3.38194814       4.61020969       9.75711416      22.60000000 
94
Lattice="6.346932002 0.0 0.0 0.292295259488 11.4213168315 0.0 1.60277169767 5.07884672266 10.2741533006" Properties=species:S:1:pos:R:3:CS:R:1 ENERGY=-951.52278711 NAME=JAPBIL pbc="T T T" Natoms=94
C       5.47765620       8.75512937       9.65719978     120.23000000 
C       2.76434276       7.74502784       0.61695987     120.23000000 
C       5.20049837       3.59575277       0.22080976     118.99000000 
C       3.04150694      12.90441078      10.05334354     118.99000000 
C       4.71239391       3.49166309       1.72292547     108.94000000 
C       3.52960505      13.00850046       8.55123418     108.94000000 
C       5.36307503       2.16808658       2.16983199     -57.40000000 
C       2.87892393      14.33207697       8.10432131     -57.40000000 
O       5.96630649       1.84573225       3.17271706    -270.59000000 
O       2.27569247      14.65443130       7.10143624    -270.59000000 
C       5.08179170       1.33441072       0.94386495     116.67000000 
C       3.16020726      15.16575284       9.33028835     116.67000000 
C       7.39780623       7.26952204      10.14061385     129.22000000 
C       0.84419908       9.23064152       0.13353945     129.22000000 
C       6.67666147       6.83869864       8.86039324     133.67000000 
C       1.56533749       9.66146491       1.41376006     133.67000000 
C       5.29205286       7.25781830       9.36072189     121.38000000 
C       2.94994610       9.24234526       0.91343141     121.38000000 
C       3.60060183       1.66633622       0.58163920     127.38000000 
C       4.64140348      14.83382733       9.69252045     127.38000000 
C       3.27142455       2.97705384       1.42647931     129.09000000 
C       4.97058076      13.52310971       8.84767399     129.09000000 
C       2.76273064       3.96859060       0.38661067     135.96000000 
C       5.47927466      12.53157295       9.88754263     135.96000000 
C       6.73103563       6.43601754       3.36580343     134.01000000 
C       1.51096333      10.06414601       6.90834987     134.01000000 
C       6.79656771       5.91875528       4.84017034     127.24000000 
C       1.44543125      10.58140828       5.43398296     127.24000000 
C       5.47703420       6.34877896       5.53105293     119.90000000 
C       2.76497111      10.15137825       4.74310037     119.90000000 
C       4.95763936       5.04296752       6.14612777     137.46000000 
C       3.28435960      11.45719604       4.12802553     137.46000000 
C       5.02012491       4.24722092       4.83718094     121.89000000 
C       3.22187405      12.25293629       5.43697871     121.89000000 
C       6.47213793       4.47117876       4.35288464     123.54000000 
C       1.76986738      12.02897845       5.92126866     123.54000000 
C       6.40150927       4.98277321       2.87401775     131.10000000 
C       1.84049604      11.51739034       7.40013555     131.10000000 
C       4.93264514       4.82096453       2.45651022     131.41000000 
C       3.30936016      11.67919903       7.81764309     131.41000000 
C       4.23210887       5.10817590       3.80627416     126.22000000 
C       4.00989643      11.39198766       6.46787914     126.22000000 
C       4.56301252       6.59044474       4.29394068     125.73000000 
C       3.67899279       9.90971881       5.98021262     125.73000000 
C       5.49870897       7.34142643       3.33225355     143.41000000 
C       2.74329634       9.15873078       6.94189975     143.41000000 
H       5.52764463       9.39418926       8.76762648      27.53000000 
H       2.71436067       7.10597429       1.50652682      27.53000000 
H       7.49523798       9.50821189      10.33983135      28.95000000 
H       0.74676098       6.99195166      -0.06567805      28.95000000 
H       5.65831527      11.69959172       0.99661430      29.47000000 
H       2.58369004       4.80057184       9.27754534      29.47000000 
H       2.13956982       7.23411250      10.17267855      28.39000000 
H       6.10242914       9.26605105       0.10147475      28.39000000 
H       6.78414041       5.76503258       8.64427386      29.20000000 
H       1.45786489      10.73513097       1.62987944      29.20000000 
H       6.98940019       7.40803748       7.97415208      28.72000000 
H       1.25259877       9.09211973       2.30000122      28.72000000 
H       4.43741308       7.01005946       8.71876780      28.04000000 
H       3.80458588       9.49010410       1.55538550      28.04000000 
H       2.90608245       0.84010531       0.76057825      28.48000000 
H       5.33591651      15.66005825       9.51358140      28.48000000 
H       2.65325241       2.80453788       2.31763934      28.19000000 
H       5.58874655      13.69561932       7.95651396      28.19000000 
H       1.78209157       3.70592917      -0.02556544      28.77000000 
H       6.45990739      12.79423439      10.29972509      28.77000000 
H       2.73142123       5.00209962       0.75535472      28.71000000 
H       5.51058408      11.49806393       9.51879858      28.71000000 
H       1.29148642       6.87284513       2.93525930      27.91000000 
H       6.95051254       9.62731842       7.33890035      27.91000000 
H       1.36542818       6.06723540       5.42356129      28.22000000 
H       6.87657078      10.43292815       4.85059201      28.22000000 
H       5.55339413       7.22225644       6.19169239      28.35000000 
H       2.68860482       9.27790712       4.08246091      28.35000000 
H       3.94280302       5.11891490       6.56226436      29.22000000 
H       4.29919594      11.38124865       3.71188894      29.22000000 
H       5.63983300       4.63704948       6.90914324      29.60000000 
H       2.60216596      11.86311407       3.36501006      29.60000000 
H       4.72151445       3.19630226       4.87585280      28.01000000 
H       3.52049086      13.30385494       5.39830050      28.01000000 
H       0.81339742       3.66332221       4.61010675      27.45000000 
H       7.42860154      12.83684134       5.66404655      27.45000000 
H       0.76854365       4.56412958       2.15361558      28.35000000 
H       7.47345531      11.93602763       8.12053772      28.35000000 
H       4.65148875       5.59781631       1.72528018      29.01000000 
H       3.59051021      10.90234724       8.54887312      29.01000000 
H       3.15534551       4.93743708       3.80850828      28.16000000 
H       5.08665980      11.56272013       6.46565137      28.16000000 
H       3.65820024       7.15127235       4.53909093      28.37000000 
H       4.58380507       9.34889121       5.73506872      28.37000000 
H       5.08401313       7.49532684       2.32457654      28.98000000 
H       3.15798583       9.00483672       7.94957676      28.98000000 
H       5.73280286       8.33680943       3.74585137      29.82000000 
H       2.50919610       8.16334778       6.52830193      29.82000000 
64
Lattice="3.553020356 0.0 0.0 0.0 9.69305523455 0.0 -1.6370150458 0.0 16.2629096446" Properties=species:S:1:pos:R:3:CS:R:1 ENERGY=-1123.09567875 NAME=KEMDOW pbc="T T T" Natoms=64
N       0.83953607       0.27723507      13.18323332      82.46000000 
N       0.25796349       5.12376091      11.21113292      82.46000000 
N       1.07646924       9.41582016       3.07967633      82.46000000 
N       1.65804182       4.56929432       5.05178027      82.46000000 
H       0.97244746       9.03338726      12.74060160      20.55000000 
H       0.12504855       4.18686142      11.65376465      20.55000000 
H       0.94355430       0.65966797       3.52230805      20.55000000 
H       1.79095676       5.50619381       4.60914855      20.55000000 
N       1.71461656       1.42898570      11.35977708     120.33000000 
N      -0.61712055       6.27551154      13.03458916     120.33000000 
N       0.20138875       8.26406953       4.90313256     120.33000000 
N       2.53312586       3.41754369       3.22832404     120.33000000 
H       2.31050071       0.62426212      11.17482106      25.56000000 
H      -1.21300470       5.47079152      13.21954519      25.56000000 
H      -0.39449540       9.06879311       5.08808859      25.56000000 
H       3.12901001       4.22226372       3.04336801      25.56000000 
H       1.73238522       2.23418184      10.72971643      22.86000000 
H      -0.63488565       7.08071123      13.66464981      22.86000000 
H       0.18362009       7.45887340       5.53319321      22.86000000 
H       2.55089096       2.61234400       2.59825983      22.86000000 
C       0.84326675       1.41570807      12.32914763      22.17000000 
C       0.25422927       6.26223391      12.06521862      22.17000000 
C       1.07273856       8.27735072       3.93376202      22.17000000 
C       1.66177249       3.43082133       4.19769458      22.17000000 
N      -0.05142642       2.37230550      12.38788971      34.21000000 
N       1.14892243       7.21883490      12.00647653      34.21000000 
N       1.96743173       7.32074973       3.87501993      34.21000000 
N       0.76707933       2.47422034       4.25643667      34.21000000 
C      -0.74895537       2.43042936      13.52054997      -2.24000000 
C       1.84645138       7.27695520      10.87381628      -2.24000000 
C       2.66496068       7.26262943       2.74235968      -2.24000000 
C       0.06955393       2.41610003       5.38909337      -2.24000000 
C      -0.33897235       1.67588864      14.67463849      54.17000000 
C       1.43646836       6.52241448       9.71972776      54.17000000 
C       2.25497411       8.01717015       1.58827116      54.17000000 
C       0.47953695       3.17064075       6.54318544      54.17000000 
O      -0.73356724       9.02884650      14.47367255     -71.65000000 
O       1.83106325       4.18231711       9.92069370     -71.65000000 
O       2.64957255       0.66420873       1.78923710     -71.65000000 
O       0.08494206       5.51073813       6.34221950     -71.65000000 
C      -0.04291338       0.31329468      14.19245809      -4.30000000 
C       1.14040939       5.15982407      10.20190815      -4.30000000 
C       1.95891869       9.37976056       2.07045155      -4.30000000 
C       0.77559237       4.53323116       6.06100505      -4.30000000 
N      -1.34758601       1.85608362      15.55277102     158.29000000 
N       2.44508202       6.70260946       8.84159522     158.29000000 
N       3.26359132       7.83697517       0.71013863     158.29000000 
N      -0.52907671       2.99044577       7.42131442     158.29000000 
H       0.11988957       1.30855963       0.13274084      24.78000000 
H       2.61462149       6.15508903       7.99871576      24.78000000 
H       1.79611574       8.38449560      16.13017236      24.78000000 
H      -0.69861618       3.53796621       8.26419389      24.78000000 
C      -2.29235189       2.68949074      14.99884093      43.78000000 
C       3.38984790       7.53601658       9.39552531      43.78000000 
C       4.20835720       7.00356450       1.26407226      43.78000000 
C      -1.47384259       2.15703866       6.86738433      43.78000000 
H      -1.12832557       3.44076623      -0.61963254      25.20000000 
H       3.86284018       8.28729207       8.75108558      25.20000000 
H       3.04433088       6.25228900      16.88254218      25.20000000 
H      -1.94683487       1.40576316       7.51182406      25.20000000 
N      -1.78098698       3.18391128      13.79053332     -21.93000000 
N       2.87848299       8.03044068      10.60383292     -21.93000000 
N       3.69699229       6.50914395       2.47237987     -21.93000000 
N      -0.96247768       1.66261456       5.65907673     -21.93000000 
156
Lattice="12.9860772 0.0 0.0 0.0 6.62704193063 0.0 -4.26396546254 0.0 20.3042251731" Properties=species:S:1:pos:R:3:CS:R:1 ENERGY=-2897.45088469 NAME=TETZIB pbc="T T T" Natoms=156
C       5.16160208       0.43809830       4.84443013       3.55000000 
C      -2.93255491       3.75163874      15.45978206       3.56000000 
C       3.56050966       6.18893064      15.45979505       3.55000000 
C      11.65465366       2.87540319       4.84444311       3.56000000 
C       6.07118588       1.57122444       5.12572155      33.01000000 
C       9.14396446       4.88480384      15.17847766      33.01000000 
C       2.65092586       5.05581749      15.17850363      33.01000000 
C      -0.42186570       1.74222510       5.12576050      33.01000000 
C       6.48951937       2.60248779       4.28832734      43.84000000 
C       8.72570888       5.91610615      16.01588484      43.83000000 
C       2.23259236       4.02454116      16.01589783      43.84000000 
C      -0.00359714       0.71093578       4.28834033      43.83000000 
C       7.36531341       3.54175777       4.82949614      15.27000000 
C       7.84981096       0.22828225      15.47476799      15.27000000 
C       1.35679833       3.08528417      15.47474202      15.27000000 
C       0.87230078       6.39874669       4.82945718      15.27000000 
C       7.81881319       3.48247632       6.14690770      41.61000000 
C       7.39629819       0.16903977      14.15735643      41.61000000 
C       0.90329854       3.14456561      14.15731747      41.61000000 
C       1.32580057       6.45800216       6.14686874      41.61000000 
C       7.42986720       2.42359159       6.96577077      37.13000000 
C       7.78523120       5.73719696      13.33846739      37.13000000 
C       1.29224454       4.20345034      13.33845440      37.13000000 
C       0.93688054       0.88984497       6.96575778      37.13000000 
C       6.55390434       1.46215438       6.45757362      23.63000000 
C       8.66120704       4.77574676      13.84665155      23.63000000 
C       2.16820739       5.16488755      13.84665155      23.63000000 
C       0.06090470       1.85129517       6.45757362      23.63000000 
C       5.97703682       0.24183972       7.05295929      29.14000000 
C       9.23795768       3.55539315      13.25126588      29.14000000 
C       2.74506193       6.38518923      13.25126588      29.14000000 
C      -0.51584594       3.07164878       7.05297228      29.14000000 
C       5.99771066       6.28119672       8.32215355      18.85000000 
C       9.21724489       2.96768225      11.98207163      18.85000000 
C       2.72440108       0.34584521      11.98207163      18.85000000 
C      -0.49513315       3.65935968       8.32216653      18.85000000 
C       5.31808431       5.09230837       8.58605661      38.43000000 
C       9.89681929       1.77875494      11.71816857      38.44000000 
C       3.40402743       1.53473356      11.71816857      38.43000000 
C      -1.17470756       4.84828699       8.58605661      38.44000000 
C       4.61723871       4.48574169       7.55246875      17.36000000 
C      -2.38842529       1.17218826      12.75174344      17.36000000 
C       4.10486004       2.14130024      12.75175642      17.36000000 
C      11.11053703       5.45485367       7.55248174      17.36000000 
C       4.49359827       5.05980422       6.28868969      47.27000000 
C      -2.26470693       1.74626377      14.01549653      47.27000000 
C       4.22850049       1.56723771      14.01553548      47.27000000 
C      10.98681867       4.88076517       6.28872865      47.27000000 
C       5.16226437       6.25152354       6.07453629      24.14000000 
C      -2.93332109       2.93802205      14.22966291      24.13000000 
C       3.55984737       0.37551839      14.22968888      24.14000000 
C      11.65543283       3.68901988       6.07456226      24.13000000 
C       4.42203199       0.98159160       2.69744198       9.34000000 
C      -2.19286795       4.29502816      17.60677020       9.34000000 
C       4.30007974       5.64545033      17.60678319       9.34000000 
C      10.91497969       2.33201377       2.69746796       9.34000000 
C       5.31570785       0.77339881       1.63437573      55.23000000 
C      -3.08650486       4.08690030      18.66988840      55.23000000 
C       3.40640388       5.85364312      18.66984944      55.23000000 
C      11.80861659       2.54014163       1.63433677      55.23000000 
C       5.28342447       1.63449261       0.53563673      35.53000000 
C      -3.05415654       4.94802007      19.76860143      35.52000000 
C       3.43868727       4.99253634      19.76858845      35.53000000 
C      11.77626828       1.67902187       0.53562374      35.52000000 
C       4.35997153       2.68170286       0.47349835      41.33000000 
C      -2.13059971       5.99513941      19.83071384      41.33000000 
C       4.36212722       3.94533907      19.83072683      41.33000000 
C      10.85271145       0.63190252       0.47352432      41.33000000 
C       3.46688004       2.87523437       1.53151301      34.14000000 
C      -1.23752121       6.18859301      18.77264723      34.14000000 
C       5.25523169       3.75180756      18.77271216      34.14000000 
C       9.95963295       0.43843594       1.53157794      34.14000000 
C       3.49111206       2.02984074       2.64292643      56.71000000 
C      -1.26188309       5.34321237      17.66124680      56.71000000 
C       5.23098669       4.59720119      17.66131173      56.71000000 
C       9.98399483       1.28382956       2.64299136      56.71000000 
N       4.44574457       0.13471756       3.82532175    -188.86000000 
N      -2.21673636       3.44816711      16.47886447    -188.82000000 
N       4.27636717       6.49232437      16.47891641    -188.86000000 
N      10.93883512       3.17887482       3.82536071    -188.82000000 
N       7.75220760       4.68490915       3.98411550    -141.21000000 
N       7.46298169       1.37143364      16.32017460    -141.21000000 
N       0.96990413       1.94213278      16.32010967    -141.21000000 
N       1.25913005       5.25560829       3.98405057    -141.21000000 
N       6.73270964       0.22973669       9.46046113    -148.94000000 
N       8.48225889       3.54331609      10.84379002    -148.94000000 
N       1.98940210       6.39730524      10.84376404    -148.94000000 
N       0.23985285       3.08372584       9.46043516    -148.94000000 
N       4.11531384       3.11693124       7.75361010    -136.23000000 
N      -1.88635757       6.43047168      12.55057612    -136.24000000 
N       4.60679790       3.51011070      12.55061507    -136.23000000 
N      10.60845633       0.19657025       7.75364906    -136.24000000 
O       7.55976693       4.60008410       2.76873555    -332.09000000 
O       7.65525355       1.28647872      17.53556754    -332.10000000 
O       1.16234481       2.02695783      17.53548963    -332.09000000 