68
Lattice="7.000045958 0.0 0.0 0.0 18.9301262836 0.0 0.0 0.0 5.38003232199" Properties=species:S:1:pos:R:3:CS:R:1 ENERGY=-1279.06192021 NAME=OXHEPA pbc="T T T" Natoms=68
C       6.05613176       3.67319712       4.66051860      73.68000000 
C       2.55610878       5.79186603       0.71951372      73.68000000 
C       0.94391420      13.13826026       3.40953338      73.68000000 
C       4.44393718      15.25692917       1.97049894      73.68000000 
C       5.71586653       2.28198698       4.03164147     116.50000000 
C       2.21584355       7.18307616       1.34839085     116.50000000 
C       1.28417943      11.74705012       4.03841051     116.50000000 
C       4.78420241      16.64813930       1.34162181     116.50000000 
C       7.12149676       1.69422112       3.83073315     112.57000000 
C       3.62147378       7.77083502       1.54930617     112.57000000 
C      -0.12145080      11.15928427       4.23931883     112.57000000 
C       3.37857218      17.23589816       1.14071349     112.57000000 
C       1.03373879       2.87303586       4.36466866      64.24000000 
C       4.53376177       6.59202728       1.01537067      64.24000000 
C       5.96630717      12.33809200       3.70539033      64.24000000 
C       2.46628419      16.05709042       1.67464899      64.24000000 
C       0.85434161       4.03477749       3.38037119    -161.45000000 
C       4.35436459       5.43028565       1.99966813    -161.45000000 
C       6.14570435      13.49984063       4.68968079    -161.45000000 
C       2.64568137      14.89534179       0.69035153    -161.45000000 
C      -0.35337632       4.48614045       3.50727503     -43.52000000 
C       3.14664666       4.97891569       1.87276430     -43.52000000 
C       7.35342228      13.95120360       4.56277696     -43.52000000 
C       3.85339930      14.44397883       0.81725537     -43.52000000 
C       5.08186536       1.43941945      -0.28084184     -13.07000000 
C       1.58184239       8.02564369       5.66087417     -13.07000000 
C       1.91818059      10.90448259       2.97086150     -13.07000000 
C       5.41820357      17.49069983       2.40917782     -13.07000000 
C       7.18432217       0.54196456      -0.56820073      -5.99000000 
C       3.68429919       8.92309858       5.94824005      -5.99000000 
C      -0.18427621      10.00702770       3.25822039      -5.99000000 
C       3.31574677      18.38816173       2.12181193      -5.99000000 
H       5.27323962       4.13916218       5.26689758      24.78000000 
H       1.77321664       5.32590097       0.11314174      24.78000000 
H       1.72680634      13.60422532       2.80315440      24.78000000 
H       5.22682932      14.79095711       2.57687792      24.78000000 
H       5.07232430       2.34478439       3.14269163      26.39000000 
H       1.57230132       7.12027875       2.23734769      26.39000000 
H       1.92772166      11.80984754       4.92736035      26.39000000 
H       5.42774464      16.58534189       0.45267197      26.39000000 
H       7.38514649       1.35748391       2.82269853      25.34000000 
H       3.88512351       8.10757923       2.55733379      25.34000000 
H      -0.38510053      10.82254705       5.24735345      25.34000000 
H       3.11492245      17.57264237       0.13268587      25.34000000 
H       2.03286935       2.58081894       4.69733184      25.32000000 
H       5.53289233       6.88424420       0.68270748      25.32000000 
H       4.96717661      12.04587509       3.37272014      25.32000000 
H       1.46715363      16.34930734       2.00731218      25.32000000 
H       5.82956127       5.07000729       2.88814196      23.94000000 
H       2.32953829       4.39505586       2.49189036      23.94000000 
H       1.17048468      14.53507043      -0.19812930      23.94000000 
H       4.67050766      13.86011900       5.57816162      23.94000000 
O       5.94227601       0.42724081       0.10966272     -93.18000000 
O       2.44225303       9.03782234       5.27037660     -93.18000000 
O       1.05776994       9.89230395       2.58035694     -93.18000000 
O       4.55779292      18.50288548       2.79968238     -93.18000000 
O       4.01853038       1.60056051       0.26440574    -113.55000000 
O       0.51850740       7.86450263       5.11563359    -113.55000000 
O       2.98151557      11.06562365       2.42561393    -113.55000000 
O       6.48153855      17.32955878       2.95441840    -113.55000000 
O       1.08306111      18.74433806      -0.27266579    -137.08000000 
O       4.58308409       9.65085136       5.65269811    -137.08000000 
O       5.91698485       9.27927492       2.96267845    -137.08000000 
O       2.41696187       0.18578822       2.41735387    -137.08000000 
O       0.21742843       3.32872485       5.46542588     170.16000000 
O       3.71745141       6.13633829      -0.08539356     170.16000000 
O       6.78261753      12.79378100       2.60462610     170.16000000 
O       3.28259455      15.60140143       2.77540622     170.16000000 
132
Lattice="13.331049642 0.0 0.0 0.0 5.93831606303 0.0 -4.18801590028 0.0 15.0800166998" Properties=species:S:1:pos:R:3:CS:R:1 ENERGY=-1455.78884038 NAME=QODBOC pbc="T T T" Natoms=132
O       4.94824567       0.79463721       4.83523836    -151.03000000 
O      -0.37786860       3.76404853       2.70468334    -151.29000000 
O       4.19478807       5.14367886      10.24476501    -151.03000000 
O       9.52090234       2.17426753      12.37533336    -151.29000000 
O       2.66198399       2.18887836       3.55952356    -152.38000000 
O       1.90853972       5.15827636       3.98031815    -152.52000000 
O       6.48104976       3.74943770      11.52049313    -152.38000000 
O       7.23449402       0.78005304      11.09969855    -152.52000000 
N       3.46635286       1.00100186       1.68425814       6.99000000 
N       1.10434415       3.97033319       5.85566356       6.99000000 
N       5.67669421       4.93732754      13.39574523       6.99000000 
N       8.03868959       1.96798287       9.22435314       6.99000000 
N       5.16762142       5.89136411       2.63834803      10.65000000 
N      -0.59689775       2.92227273       4.90165365      10.64000000 
N       3.97542565       0.04695196      12.44166867      10.65000000 
N       9.73994482       3.01605666      10.17836305      10.64000000 
C       4.60650421       0.68881534       3.67474383      10.44000000 
C      -0.03600717       3.65823999       3.86539117      10.41000000 
C       4.53652953       5.24951406      11.40527287      10.44000000 
C       9.17904091       2.28008941      11.21461220      10.41000000 
C      -1.33965051       0.83249739      14.37168471     141.15000000 
C       1.72235828       3.80172207       8.24820037     141.14000000 
C      10.48268425       5.10583201       0.70833199     141.15000000 
C       7.42067546       2.13659399       6.83181633     141.14000000 
H      -1.35423468       5.67638760      14.39245448      29.49000000 
H       1.73707576       2.70729622       8.22753724      29.49000000 
H      10.49726842       0.26194179       0.68756222      29.49000000 
H       7.40597131       3.23101984       6.85247946      29.49000000 
H      -0.33802209       1.15601530      14.06136453      29.39000000 
H       0.72070321       4.12521333       8.55840056      29.39000000 
H       9.48106917       4.78231409       1.01865217      29.39000000 
H       8.42233054       1.81311607       6.52160281      29.39000000 
H      -2.07807068       1.18874303      13.64434264      29.18000000 
H       2.46075179       4.15810102       8.97554243      29.18000000 
H      11.22110442       4.74957304       1.43567406      29.18000000 
H       6.68228195       1.78021504       6.10447427      29.18000000 
C       2.47840210       1.45048486       0.64440961     106.97000000 
C       2.09245488       4.41960289       6.89543210     106.97000000 
C       6.66464497       4.48784454      14.43559376     106.97000000 
C       7.05057886       1.51871317       8.18458460     106.97000000 
C       4.50509492       0.13729648       1.44136642    -139.24000000 
C       0.06578873       3.10638786       6.09854195    -139.26000000 
C       4.63793883       5.80103291      13.63865028    -139.24000000 
C       9.07724501       2.83192821       8.98146142    -139.26000000 
C       3.41761454       1.41769047       3.00931115      10.97000000 
C       1.15280252       4.38714179       4.53066387      10.96000000 
C       5.72541920       4.52063892      12.07070555      10.97000000 
C       7.99024455       1.55118761      10.54935283      10.96000000 
C       1.06929682       1.01703911       1.07421598     143.42000000 
C       3.50146684       3.98595718       6.46559907     143.42000000 
C       8.07373692       4.92127695      14.00580072     143.42000000 
C       5.64158023       1.95237221       8.61441763     143.42000000 
H       0.77274762       1.52633853       1.99724453      28.75000000 
H       3.79806937       4.49526993       5.54258385      28.75000000 
H       8.37029945       4.41199087      13.08277217      28.75000000 
H       5.34496437       1.44305946       9.53741951      28.75000000 
H       1.00253493      -0.06665525       1.22784300      29.13000000 
H       3.56826873       2.90224949       6.31203871      29.13000000 
H       8.14049882       6.00497131      13.85217370      29.13000000 
H       5.57477834       3.03606657       8.76797799      29.13000000 
H       0.36755037       1.30709609       0.28116517      29.43000000 
H       4.20318663       4.27606748       7.25863655      29.43000000 
H       8.77548337       4.63123331      14.79885153      29.43000000 
H       4.93984711       1.66226191       7.82136682      29.43000000 
C       6.40771565       5.06269273       2.77997711     108.81000000 
C      11.49419097       2.09350804       4.76002458     108.82000000 
C       2.73533142       0.87563666      12.30003959     108.81000000 
C      -2.35114390       3.84482136      10.31999212     108.82000000 
C       2.53831184       2.96559864       0.52897605     143.81000000 
C       2.03314504      -0.00357272       7.01094565     143.81000000 
C       6.60472190       2.97271742      14.55104065     143.81000000 
C       7.10988870       5.94190212       8.06907105     143.81000000 
H       2.23340407       3.46789926       1.45608390      28.55000000 
H       2.33829277       0.49863458       6.08385113      28.55000000 
H       6.90964300       2.47043013      13.62391947      28.55000000 
H       6.80474097       5.43969481       8.99616557      28.55000000 
H      -2.34153221       3.28147786      14.81159602      29.28000000 
H       2.72515983       0.31193323       7.80831572      29.28000000 
H      11.48456596       2.65683820       0.26842068      29.28000000 
H       6.41787391       5.62638283       7.27170098      29.28000000 
H       3.54841880       3.31488547       0.26098196      29.96000000 
H       1.02319805       0.34616737       7.27895307      29.96000000 
H       5.59461494       2.62343059      14.81903474      29.96000000 
H       8.11983569       5.59216203       7.80105030      29.96000000 
C       6.63422352       4.26534932       1.49635700     140.36000000 
C      11.26768311       1.29613796       6.04360469     140.36000000 
C       2.50882356       1.67296674      13.58364637     140.36000000 
C      -2.12464937       4.64217810       9.03641201     140.36000000 
H       5.76694542       3.63291099       1.26682299      29.75000000 
H      -1.19612843       0.66368631       6.27323202      29.75000000 
H       3.37608832       2.30541840      13.81319371      29.75000000 
H      10.33916217       5.27462976       8.80677135      29.75000000 
H       7.51497930       3.62593885       1.65492983      30.19000000 
H      10.38695398       0.65671417       5.88491188      30.19000000 
H       1.62806777       2.31239054      13.42507354      30.19000000 
H      -1.24390691       5.28160190       9.19510482      30.19000000 
H       6.82312449       4.92145026       0.63666427      28.98000000 
H      11.07858217       1.95221224       6.90328409      28.98000000 
H       2.31990925       1.01687914      14.44335243      28.98000000 
H      -1.93553510       3.98611715       8.17671928      28.98000000 
C       6.24018435       4.09389869       3.95922843     141.92000000 
C      11.66181559       1.12475399       3.58071993     141.92000000 
C       2.90286272       1.84441737      11.12077494     141.92000000 
C      -2.51876852       4.81356207      11.49929677     141.92000000 
H       5.32464785       3.49617442       3.85084699      29.92000000 
H      -0.75359091       0.52721635       3.68916802      29.92000000 
H       3.81838589       2.44214165      11.22916971      29.92000000 
H       9.89662465       5.41109971      11.39084868      29.92000000 
H       6.19884477       4.62311470       4.91767757      28.15000000 
H      11.70318184       1.65402332       2.62231078      28.14000000 
H       2.94418898       1.31521470      10.16233913      28.15000000 
H      -2.56014810       4.28430607      12.45769259      28.14000000 
H       7.10053030       3.40996252       3.97866510      29.97000000 
H      10.80160295       0.44065785       3.56120328      29.97000000 
H       2.04251677       2.52835354      11.10135160      29.97000000 
H      -1.65856921       5.49765822      11.51881342      29.97000000 
C       7.58843339       0.07405398       3.02610828     144.28000000 
C      10.31343325       3.04313203       4.51378676     144.28000000 
C       1.55460035       5.86427541      12.05389509     144.28000000 
C      -1.17038617       2.89518404      10.56622994     144.28000000 
H       7.73752785       0.73694042       2.16102980      29.80000000 
H      10.16420548       3.70604513       5.37883857      29.80000000 
H       1.40550589       5.20137564      12.91898690      29.80000000 
H      -1.02117173       2.23228426       9.70117813      29.80000000 
H       8.50239682       5.41808518       3.16580434      29.68000000 
H       9.39948314       2.44884716       4.37398404      29.68000000 
H       0.64063692       0.52023088      11.91421236      29.68000000 
H      -0.25644940       3.48948223      10.70603266      29.68000000 
H       7.42456813       0.67884371       3.92971348      28.68000000 
H      10.47739182       3.64793509       3.61019488      28.67000000 
H       1.71846562       5.25947235      11.15028989      28.68000000 
H      -1.33435808       2.29039431      11.46982182      28.67000000 
120
Lattice="3.75400292 0.0 0.0 0.0 19.0970145324 0.0 -0.14586553746 0.0 17.5944072916" Properties=species:S:1:pos:R:3:CS:R:1 ENERGY=-2074.25579139 NAME=HONSIO pbc="T T T" Natoms=120
C       3.76186380       4.36272200       3.25067372     -15.77000000 
C      -0.08079740      13.91123114       5.54653181     -15.77000000 
C      -0.15373017      14.73429253      14.34373358     -15.77000000 
C       3.68893103       5.18578339      12.04787924     -15.77000000 
O       0.85085227      18.10686248       2.34222378    -693.38000000 
O       2.83021788       8.55835333       6.45498174    -693.38000000 
O       2.75728136       0.99015206      15.25218727    -693.38000000 
O       0.77791950      10.53866120      11.13942555    -693.38000000 
C       1.89331636      18.65644850       2.70578019     -63.01000000 
C       1.78775379       9.10794311       6.09142158     -63.01000000 
C       1.71482103       0.44056603      14.88862710     -63.01000000 
C       1.82038359       9.98907142      11.50298572     -63.01000000 
O       2.83820640       5.12227317       3.57572908    -297.66000000 
O       0.84286000      14.67078231       5.22147645    -297.66000000 
O       0.76992723      13.97474137      14.01868197    -297.66000000 
O       2.76527363       4.42623222      12.37293084    -297.66000000 
C       2.49446737       0.72397823       2.05233592      42.75000000 
C       1.18660278      10.27248362       6.74486960      42.75000000 
C       1.11367001      18.37303630      15.54207513      42.75000000 
C       2.42153460       8.82453091      10.84953769      42.75000000 
C       0.65510730       2.14076146       2.69071538      95.07000000 
C       3.02596286      11.68927060       6.10648639      95.07000000 
C       2.95302633      16.95625307      14.90369191      95.07000000 
C       0.58217453       7.40774393      11.48792090      95.07000000 
O       2.84478717       2.21760965       7.64018053    -295.01000000 
O       0.83628298      11.76611880       1.15702499    -295.01000000 
O       0.76335022      16.87940488       9.95422676    -295.01000000 
O       2.77185440       7.33089574      16.43738605    -295.01000000 
C       2.51155934      18.42233387       3.99846734      42.46000000 
C       1.16951081       8.87382472       4.79873442      42.46000000 
C       1.09657804       0.67468067      13.59593995      42.46000000 
C       2.43862657      10.22318981      12.79567287      42.46000000 
C      -0.19316597       0.15985295       4.01379118       1.10000000 
C       3.87423237       9.70835834       4.78341434       1.10000000 
C       3.80129960      18.93716158      13.58061986       1.10000000 
C      -0.26609874       9.38865619      12.81099295       1.10000000 
C       1.80507852       1.80606582       1.42308995     100.27000000 
C       1.87598788      11.35457496       7.37411182     100.27000000 
C       1.80305511      17.29094871      16.17131734     100.27000000 
C       1.73214575       7.74243957      10.22029547     100.27000000 
H       1.14842457       1.63838953       0.56715101      26.33000000 
H       2.53264558      11.18689492       8.23005452      26.33000000 
H       2.45971281      17.45862501      17.02726004      26.33000000 
H       1.07548805       7.91011962       9.36435653      26.33000000 
C       0.66802857       0.40299597       5.12213802      97.04000000 
C       3.01304158       9.95150511       3.67506750      97.04000000 
C       2.94010505      18.69401856      12.47227302      97.04000000 
C       0.59509580       9.14550942      13.91934355      97.04000000 
C       1.27039964       2.61364194       3.99862877      12.04000000 
C       2.41067052      12.16214733       4.79857300      12.04000000 
C       2.33773775      16.48337259      13.59577853      12.04000000 
C       1.19746687       6.93486720      12.79583429      12.04000000 
C      -0.20599716       1.01530763       2.82688057       4.53000000 
C       3.88706731      10.56381302       5.97032120       4.53000000 
C       3.81413078      18.08170690      14.76752672       4.53000000 
C      -0.27892992       8.53320151      11.62408610       4.53000000 
C       1.27935293       1.79653065       5.13999957       7.55000000 
C       2.40171722      11.34503604       3.65720595       7.55000000 
C       2.32878445      17.30048388      12.45440772       7.55000000 
C       1.20642016       7.75197849      13.93720509       7.55000000 
C       3.52768910       3.23464412       2.34728042      30.57000000 
C       0.15338105      12.78314951       6.44992510      30.57000000 
C       0.08044453      15.86237416      15.24712687      30.57000000 
C       3.45475633       6.31386502      11.14448594      30.57000000 
C       2.43909207       3.08315134       1.58716240      23.98000000 
C       1.24197808      12.63166048       7.21004312      23.98000000 
C       1.16904531      16.01386320      16.00724489      23.98000000 
C       2.36615930       6.46535405      10.38436793      23.98000000 
H       1.81115625       3.96478643       1.50853106      24.62000000 
H       1.86991390      13.51329557       7.28867447      24.62000000 
H       1.79698113      15.13222810      16.08587623      24.62000000 
H       1.73822348       5.58371896      10.30573658      24.62000000 
C       3.53655981       0.43788192       6.26245770      30.29000000 
C       0.14451034       9.98638731       2.53474782      30.29000000 
C       0.07157757      18.65913262      11.33195334      30.29000000 
C       3.46362704       9.11062723      15.05965947      30.29000000 
C       4.90496145       2.39149882       6.43251404      50.12000000 
C      -1.22389129      11.94000797       2.36468773      50.12000000 
C      -1.29682782      16.70551571      11.16189326      50.12000000 
C       4.83202868       7.15701032      15.22971956      50.12000000 
C       4.89263330       4.02943787       4.13989565      49.22000000 
C      -1.21156315      13.57794326       4.65730987      49.22000000 
C      -1.28449592      15.06757666      13.45451540      49.22000000 
C       4.81970053       5.51907127      12.93709742      49.22000000 
C       5.01092569       3.80079657       6.54667326      22.67000000 
C      -1.32985553      13.34930196       2.25053226      22.67000000 
C      -1.40279206      15.29621797      11.04773778      22.67000000 
C       4.93799292       5.74771258      15.34387503      22.67000000 
H       4.91461299       4.25321398       7.53922037      23.23000000 
H      -1.23354284      13.80172313       1.25798515      23.23000000 
H      -1.30647560      14.84380055      10.05519067      23.23000000 
H       4.84168022       5.29529141      16.33642214      23.23000000 
C       1.81988055      18.18228790       5.22824491      97.59000000 
C       1.86118960       8.63378251       3.56895685      97.59000000 
C       1.78825683       0.91472663      12.36616238      97.59000000 
C       1.74694778      10.46323202      14.02545044      97.59000000 
H       1.16533260      17.31610429       5.35220960      26.92000000 
H       2.51573755       7.76759514       3.44499592      26.92000000 
H       2.44280478       1.78091400      12.24219769      26.92000000 
H       1.09239983      11.32941939      14.14941512      26.92000000 
C       3.77028778       1.65792911       7.03581234     -16.65000000 
C      -0.08921763      11.20643825       1.76139319     -16.65000000 
C      -0.16215040      17.43908542      10.55859871     -16.65000000 
C       3.69735502       7.89057628      15.83301786     -16.65000000 
C       2.45239626      18.76125651       6.37533682      23.96000000 
C       1.22867389       9.21275112       2.42186495      23.96000000 
C       1.15574112       0.33575802      11.21907047      23.96000000 
C       2.37946349       9.88426341      15.17254234      23.96000000 
H       1.83226876      18.95793248       7.24433218      26.13000000 
H       1.84880139       9.40942709       1.55287334      26.13000000 
H       1.77586862       0.13908205      10.35007511      26.13000000 
H       1.75933599       9.68759120      16.04153771      26.13000000 
C       5.00512951       4.60012139       5.43308959      20.72000000 
C      -1.32405935      14.14863054       3.36411593      20.72000000 
C      -1.39699212      14.49689314      12.16132145      20.72000000 
C       4.93219674       4.94838400      14.23029511      20.72000000 
H       4.90718757       5.68589541       5.53985344      22.45000000 
H      -1.22611742      15.23440455       3.25735209      22.45000000 
H      -1.29905394      13.41111912      12.05455386      22.45000000 
H       4.83425480       3.86260998      14.33705896      22.45000000 
36
Lattice="4.808711578 0.0 0.0 -2.04199051933 7.18321488552 0.0 -0.608378954002 -2.1973119033 9.2994038245" Properties=species:S:1:pos:R:3:CS:R:1 ENERGY=-720.98839556 NAME=XIMKUA pbc="T T T" Natoms=36
O       1.52072138       1.63622663       7.68576372     -30.37000000 
O       0.63761592       3.34967635       1.61364492     -30.37000000 
O       2.84765167       3.94402349       3.99851100       9.79000000 
O      -0.68931438       1.04187949       5.30089283       9.79000000 
O       1.34106791      -1.52380376       6.25624917      -9.01000000 
O       0.81726938       6.50970674       3.04315465      -9.01000000 
O      -1.59792043       4.17029741       8.34250869    -710.43000000 
O       3.75626254       0.81560557       0.95689513    -710.43000000 
N       2.15951543       2.82914775       5.87606282      66.50000000 
N      -0.00117813       2.15675523       3.42334101      66.50000000 
H       2.92170102       2.13170184       5.70603158      16.88000000 
H      -0.76335892       2.85420114       3.59337705      16.88000000 
N       1.07719948       4.76851556       5.16799446      68.98000000 
N       1.08114262       0.21738742       4.13140936      68.98000000 
H       0.97691861       5.49140917       4.41254107      16.96000000 
H       1.18141869      -0.50550619       4.88686276      16.96000000 
N      -0.65882715       3.33512519       8.09209503    -510.55000000 
N       2.81716925       1.65077779       1.20731360    -510.55000000 
N       2.76032547       5.06625655       1.20200478     215.33000000 
N      -0.60198818      -0.08035357       8.09739904     215.33000000 
H      -1.74986129       5.53657259       0.30025595      21.42000000 
H      -0.90051299      -0.55066961       8.99914787      21.42000000 
H       2.06268241       4.30359009       1.05053037      24.07000000 
H       0.09565970       0.68231770       8.24887346      24.07000000 
H       2.31269213       5.77232448       1.80984997      25.55000000 
H      -0.15435002      -0.78642150       7.48955386      25.55000000 
H      -1.21991242       4.64467681       1.64530067      27.09000000 
H       3.37825453       0.34122617       7.65410316      27.09000000 
C       1.33178229       2.64139161       6.97793580      -0.90000000 
C       0.82655501       2.34451137       2.32146803      -0.90000000 
C       2.08209517       3.85417271       4.97428514      12.01000000 
C       0.07624212       1.13173027       4.32511869      12.01000000 
C       0.15917797       4.75860961       6.21029232      15.63000000 
C       1.99916413       0.22729337       3.08911151      15.63000000 
C       0.27099013       3.63817020       7.15507431      10.57000000 
C       1.88734716       1.34773279       2.14432952      10.57000000 
76
Lattice="3.654040818 0.0 0.0 0.0 14.4281628719 0.0 -1.16273040445 0.0 12.605629625" Properties=species:S:1:pos:R:3:CS:R:1 ENERGY=-1205.63735073 NAME=HAZQUV pbc="T T T" Natoms=76
O       0.35604974       4.26406101       9.03678642    -436.05000000 
O       1.55768106      11.45675169       9.87620364    -447.61000000 
O       2.13525702      10.16409821       3.56884320    -436.05000000 
O       0.93362935       2.97141118       2.72942598    -447.61000000 
O       0.40557295       1.57469793       7.95748508    -574.77000000 
O       1.50763532       8.76651895      10.95404337    -585.30000000 
O       2.08573746      12.85346129       4.64814820    -574.77000000 
O       0.98367510       5.66164392       1.65158626    -585.30000000 
C       2.21401622       2.87829161       8.59280219     -51.53000000 
C      -0.30069833      10.07067169      10.32051673     -48.72000000 
C       0.27729420      11.54987127       4.01282743     -51.53000000 
C       2.79200509       4.35749118       2.28511289     -48.72000000 
N       0.31463849       5.31908125       6.57568762    -192.63000000 
N       1.60406911      12.51693875      12.33838404    -195.26000000 
N       2.17667192       9.10908162       6.02994201    -192.63000000 
N       0.88723765       1.91122413       0.26724558    -195.26000000 
N       0.44250434       2.57602204       5.45113098     -97.93000000 
N       2.63575465       9.76876753       0.85555346     -95.50000000 
N       2.04880242      11.85214083       7.15449865     -97.93000000 
N      -0.14444423       4.65939168      11.75007616     -95.50000000 
C      -1.45564562       3.97621394       5.93036209      11.35000000 
C       4.53405443      11.16851364       0.37610677      10.76000000 
C       3.94695604      10.45194527       6.67526754      11.35000000 
C      -2.04274402       3.25964923      12.22952286      10.76000000 
C      -0.58677684       4.43843914       6.87695232    -151.78000000 
C       2.50165135      11.63226258      12.03649084    -156.08000000 
C       3.07808360       9.98972373       5.72867730    -151.78000000 
C      -0.01034459       2.79590029       0.56913878    -156.08000000 
C       1.31605030       2.38608865       7.67911659     -58.05000000 
C       0.59704104       9.57751869      11.23379308     -61.67000000 
C       1.17525646      12.04207422       4.92651303     -58.05000000 
C       1.89426572       4.85064053       1.37184020     -61.67000000 
C       3.09070465       3.88212239       8.27304439    -158.55000000 
C      -1.17786179      11.07413708      10.64072399    -160.82000000 
C      -0.59939789      10.54604048       4.33258524    -158.55000000 
C       3.66917220       3.35402580       1.96490564    -160.82000000 
C       1.33685276       2.97534658       6.29508652    -197.48000000 
C       1.74030271      10.16644045       0.01182448    -201.80000000 
C       1.15445766      11.45281263       6.31054311    -197.48000000 
C       0.75100405       4.26172242      12.59380880    -201.80000000 
H       2.27403749       2.41854384       9.57257112     -36.16000000 
H      -0.36012399       9.61203476       9.34016682     -35.35000000 
H       0.21726927      12.00961537       3.03305851     -36.16000000 
H       2.85143441       4.81612811       3.26546281     -35.35000000 
H      -1.47784758       4.37999642       4.92162392     -38.16000000 
H       4.55736721      11.57277114       1.38432240     -38.26000000 
H       3.96915434      10.04816646       7.68400570     -38.16000000 