6
Lattice="20.00000000 0.00000000 0.00000000 0.00000000 20.00000000 0.00000000 0.00000000 0.00000000 20.00000000" Properties=species:S:1:pos:R:3:force:R:3:mono1_force:R:3:mono2_force:R:3 energy=-4154.0366405741052389526 mono1_energy=-2076.98723119700161072983 mono2_energy=-2077.01593139777810087252
O      -6.16279900      7.23055400     -5.28846600	      0.86907126     -0.03646667     -0.89381438	      0.86028182     -0.01096238     -0.90227874	      0.00004290     -0.00048994     -0.00000739
H      -6.53338800      8.03509900     -4.91579100	      0.18975968      0.12674471     -0.20232342	      0.19184476      0.12985728     -0.20423866	      0.00001767     -0.00007245     -0.00001914
H      -5.50726400      7.49746500     -5.98196700	     -1.05074444     -0.11609292      1.09547227	     -1.05194202     -0.11956181      1.10656969	     -0.00001479     -0.00004717      0.00000815
O      -5.08212600      2.53619000     -6.02660400	      0.18017065      0.24793879     -0.13500305	      0.00001662      0.00014456      0.00010984	      0.16369237      0.27634581     -0.12907822
H      -5.28589200      3.33572000     -5.52660800	     -0.06402894     -0.23326168     -0.02237174	     -0.00032789      0.00041722     -0.00021827	     -0.03893991     -0.27370334     -0.03096937
H      -5.57131400      1.82841400     -5.60560300	     -0.12422820      0.01113777      0.15804032	      0.00012670      0.00010513      0.00005615	     -0.12479824     -0.00203291      0.16006596
6
Lattice="20.00000000 0.00000000 0.00000000 0.00000000 20.00000000 0.00000000 0.00000000 0.00000000 20.00000000" Properties=species:S:1:pos:R:3:force:R:3:mono1_force:R:3:mono2_force:R:3 energy=-4153.9204803873825726146 mono1_energy=-2076.98685729776041765076 mono2_energy=-2076.96031894582266433034
O      -6.16279900      7.23055400     -5.28846600	      0.87045329      0.00264727     -0.90821994	      0.86002360     -0.01052168     -0.90252358	      0.00000836     -0.00008368      0.00010076
H      -6.53338800      8.03509900     -4.91579100	      0.18990188      0.12604135     -0.20485257	      0.19193362      0.12974823     -0.20406621	     -0.00001027     -0.00006087      0.00002412
H      -5.50726400      7.49746500     -5.98196700	     -1.05443240     -0.11714478      1.10597319	     -1.05198553     -0.11935311      1.10665182	     -0.00002018     -0.00003013      0.00001343
O      -7.40156400      3.18291500     -2.67648100	      0.83477635     -1.03174604      1.14673267	      0.00005228      0.00011503     -0.00001959	      0.84955003     -1.01056430      1.13517357
H      -6.71479700      2.48168300     -2.46280700	     -1.38296549      1.39394440     -0.25973783	     -0.00001367      0.00000519     -0.00002143	     -1.38594211      1.38703868     -0.25838597
H      -7.79701700      3.42415200     -1.80853500	      0.54226637     -0.37374221     -0.87989551	     -0.00001029      0.00000634     -0.00002102	      0.53641418     -0.37629969     -0.87692591
6
Lattice="20.00000000 0.00000000 0.00000000 0.00000000 20.00000000 0.00000000 0.00000000 0.00000000 20.00000000" Properties=species:S:1:pos:R:3:force:R:3:mono1_force:R:3:mono2_force:R:3 energy=-4153.9385596298628063172 mono1_energy=-2076.98713550059511063935 mono2_energy=-2076.9710750095359471307
O      -6.16279900      7.23055400     -5.28846600	      0.80989652      0.00240844     -0.93082319	      0.85982466     -0.01084216     -0.90248656	      0.00010445     -0.00000817      0.00004504
H      -6.53338800      8.03509900     -4.91579100	      0.20559052      0.12438022     -0.20173347	      0.19208510      0.13001608     -0.20387310	      0.00000856     -0.00000673     -0.00000586
H      -5.50726400      7.49746500     -5.98196700	     -1.03062545     -0.12880252      1.13332438	     -1.05161199     -0.11933917      1.10653970	      0.00008576     -0.00003862      0.00008271
O      -2.23700900      5.95352300     -3.19183500	     -1.11728581      0.98637362      1.90490871	     -0.00013096      0.00019277     -0.00013778	     -1.13092333      0.97211499      1.91527540
H      -1.86614500      6.25415700     -2.33560100	     -0.50793237     -0.23506482     -0.73630756	     -0.00010032     -0.00001457     -0.00002365	     -0.50697830     -0.23060945     -0.73857064
H      -1.48195700      5.65246500     -3.63656600	      1.64035659     -0.74929494     -1.16936888	     -0.00006649     -0.00001295     -0.00001861	      1.63770286     -0.74145201     -1.17682666
6
Lattice="20.00000000 0.00000000 0.00000000 0.00000000 20.00000000 0.00000000 0.00000000 0.00000000 20.00000000" Properties=species:S:1:pos:R:3:force:R:3:mono1_force:R:3:mono2_force:R:3 energy=-4153.9763607568445790823 mono1_energy=-2076.98687982435820974685 mono2_energy=-2076.9841280246477965231
O      -6.16279900      7.23055400     -5.28846600	      0.85468599     -0.00900500     -0.87475174	      0.85990747     -0.01049072     -0.90250985	     -0.00000331     -0.00000144      0.00014051
H      -6.53338800      8.03509900     -4.91579100	      0.19154235      0.13576388     -0.22283740	      0.19190191      0.12980667     -0.20394441	      0.00001491     -0.00003797      0.00007303
H      -5.50726400      7.49746500     -5.98196700	     -1.04803324     -0.12167487      1.10327846	     -1.05181818     -0.11937783      1.10662830	     -0.00002772     -0.00002426      0.00005197
O      -6.49255500      6.14346700      0.54999100	      0.36003438     -0.49379502      0.51956922	      0.00001586      0.00001347     -0.00004646	      0.36290561     -0.50929983      0.50462702
H      -6.32930200      6.36003600     -0.36886200	     -0.41301848      0.33247616      0.01280266	     -0.00003991      0.00006988     -0.00012295	     -0.41666562      0.34707521      0.03167653
H      -7.23203800      6.64328500      0.90473500	      0.05478901      0.15623485     -0.53806122	      0.00003284     -0.00002147     -0.00000464	      0.05377612      0.16228829     -0.53656907
6
Lattice="20.00000000 0.00000000 0.00000000 0.00000000 20.00000000 0.00000000 0.00000000 0.00000000 20.00000000" Properties=species:S:1:pos:R:3:force:R:3:mono1_force:R:3:mono2_force:R:3 energy=-4154.0240794278354697842 mono1_energy=-2076.98697439274621704754 mono2_energy=-2077.01531161595901953117
O      -6.16279900      7.23055400     -5.28846600	      0.88061660     -0.02259340     -0.87398668	      0.85982127     -0.01069034     -0.90256119	      0.00024075     -0.00016390      0.00025280
H      -6.53338800      8.03509900     -4.91579100	      0.18326114      0.13408348     -0.20928448	      0.19209159      0.12980495     -0.20395296	     -0.00003280     -0.00005333     -0.00001687
H      -5.50726400      7.49746500     -5.98196700	     -1.05515248     -0.11908544      1.09556182	     -1.05180590     -0.11937176      1.10672098	     -0.00004670     -0.00003120     -0.00001831
O      -3.57799800      3.84218400     -1.90909600	     -0.35379152      0.23913186     -0.23647600	     -0.00009632      0.00004588     -0.00002713	     -0.37338310      0.24485408     -0.25431837
H      -2.91248300      4.52182600     -1.76076600	     -0.09159930     -0.01754506     -0.04194813	     -0.00003330     -0.00000337     -0.00002260	     -0.08001736     -0.01571983     -0.03579658
H      -4.28931300      4.29859600     -2.39053200	      0.43666556     -0.21399144      0.26613347	      0.00002266      0.00021465     -0.00015709	      0.45323920     -0.22888583      0.28989732
6
Lattice="20.00000000 0.00000000 0.00000000 0.00000000 20.00000000 0.00000000 0.00000000 0.00000000 20.00000000" Properties=species:S:1:pos:R:3:force:R:3:mono1_force:R:3:mono2_force:R:3 energy=-4153.9175238647880614464 mono1_energy=-2076.94185235036522906912 mono2_energy=-2076.99238901191406042996
O       1.57615000      5.35575600     -0.74120600	      0.21036078      1.46361392     -0.85978502	      0.19105565      1.46293176     -0.85184293	     -0.00007344      0.00002146      0.00001587
H       1.69294500      6.19767400     -1.28564800	     -0.23873620     -2.12133929      0.88177615	     -0.23182578     -2.11884890      0.87999766	      0.00000058     -0.00000117      0.00002199
H       1.60848300      4.59202100     -1.33776000	      0.03563005      0.65653098     -0.02623943	      0.04071069      0.65593688     -0.02808164	      0.00000831      0.00000641      0.00002157
O      -2.42718700      6.82232100      2.99998200	     -0.74761724     -1.50810326     -0.29905090	      0.00003590      0.00000405     -0.00006793	     -0.73331878     -1.51063766     -0.30278281
H      -3.34587300      6.75420600      3.28810700	      0.18304992     -0.09845910     -0.09701447	      0.00001681     -0.00001019      0.00000325	      0.18196569     -0.10032821     -0.09871439
H      -2.19424300      7.69251000      3.23895700	      0.55731270      1.60775675      0.40031368	      0.00000674     -0.00001360     -0.00000841	      0.55141765      1.61093918      0.40143777
6
Lattice="20.00000000 0.00000000 0.00000000 0.00000000 20.00000000 0.00000000 0.00000000 0.00000000 20.00000000" Properties=species:S:1:pos:R:3:force:R:3:mono1_force:R:3:mono2_force:R:3 energy=-4153.9076765463173146236 mono1_energy=-2076.94217725432581748472 mono2_energy=-2076.94483022949471142951
O       1.57615000      5.35575600     -0.74120600	      0.20322279      1.45583203     -0.83421054	      0.19100695      1.46287435     -0.85140630	      0.00017859     -0.00006668      0.00007477
H       1.69294500      6.19767400     -1.28564800	     -0.22928122     -2.11833347      0.87574517	     -0.23150964     -2.11873954      0.87983654	     -0.00000187     -0.00000894     -0.00000283
H       1.60848300      4.59202100     -1.33776000	      0.03964681      0.65567246     -0.03852588	      0.04091498      0.65568517     -0.02826942	      0.00006770     -0.00001800      0.00002740
O       6.56531800      3.45867000     -0.13193400	      2.22327024     -1.13465942      1.13517233	     -0.00010770      0.00003784      0.00001041	      2.21474792     -1.12584725      1.14291490
H       7.16684400      3.09833900      0.60090900	     -1.42350046      0.84430962     -1.66642040	     -0.00011751      0.00006005      0.00002592	     -1.41962360      0.84212048     -1.66582261
H       5.79095800      3.74118400      0.32924900	     -0.81335816      0.29717878      0.52823932	     -0.00018709      0.00008213     -0.00019714	     -0.79536874      0.28382039      0.52280837
6
Lattice="20.00000000 0.00000000 0.00000000 0.00000000 20.00000000 0.00000000 0.00000000 0.00000000 20.00000000" Properties=species:S:1:pos:R:3:force:R:3:mono1_force:R:3:mono2_force:R:3 energy=-4153.9458064654960645333 mono1_energy=-2076.94195523122248850756 mono2_energy=-2077.00258979454781413433
O       1.57615000      5.35575600     -0.74120600	      0.18443271      1.47665429     -0.85887617	      0.19100794      1.46295304     -0.85183051	     -0.00004203     -0.00005703     -0.00006395
H       1.69294500      6.19767400     -1.28564800	     -0.22570316     -2.11936343      0.88331297	     -0.23180516     -2.11876617      0.87993617	      0.00000932     -0.00002193      0.00001363
H       1.60848300      4.59202100     -1.33776000	      0.03817262      0.64066456     -0.02430836	      0.04060729      0.65569231     -0.02819845	     -0.00013481     -0.00001281     -0.00005475
O      -2.46961300      1.92224400     -3.49142500	     -0.51461545      1.09707479      0.51179677	      0.00012253      0.00011025      0.00005102	     -0.53444895      1.09366519      0.51642060
H      -2.82020400      2.82200000     -3.29298000	      0.39148297     -1.07245579     -0.17755471	      0.00007815      0.00001427      0.00002247	      0.39868036     -1.07466584     -0.18572857
H      -2.14432800      2.01045900     -4.38577600	      0.12623032     -0.02257442     -0.33437050	     -0.00001075     -0.00000371      0.00001931	      0.13593611     -0.01890759     -0.33058697
6
Lattice="20.00000000 0.00000000 0.00000000 0.00000000 20.00000000 0.00000000 0.00000000 0.00000000 20.00000000" Properties=species:S:1:pos:R:3:force:R:3:mono1_force:R:3:mono2_force:R:3 energy=-4153.8430137496221324668 mono1_energy=-2076.94208769903344861561 mono2_energy=-2076.91840888506900360281
O       1.57615000      5.35575600     -0.74120600	      0.21214793      1.49722172     -0.86349570	      0.19089434      1.46290934     -0.85183736	     -0.00004424     -0.00016524      0.00012400
H       1.69294500      6.19767400     -1.28564800	     -0.23194852     -2.12307125      0.87362633	     -0.23173513     -2.11900901      0.88005018	      0.00000860     -0.00002998      0.00003576
H       1.60848300      4.59202100     -1.33776000	      0.02332768      0.63772771     -0.00847370	      0.04074743      0.65587941     -0.02795618	     -0.00001619     -0.00003647      0.00010108
O       0.53886600      2.26994500      2.41012200	      2.86167147     -0.73833568      0.65948491	      0.00008723      0.00024320     -0.00016426	      2.86928916     -0.70876262      0.66540080
H       1.42356700      1.94260700      2.81025800	     -2.15981576      0.91855551     -1.16205195	     -0.00001218     -0.00000856     -0.00002945	     -2.16209965      0.90377890     -1.16387203
H      -0.07120300      1.97218400      3.07246400	     -0.70538279     -0.19209800      0.50091012	      0.00001831     -0.00001438     -0.00006292	     -0.70713768     -0.19478460      0.49821039
6
Lattice="20.00000000 0.00000000 0.00000000 0.00000000 20.00000000 0.00000000 0.00000000 0.00000000 20.00000000" Properties=species:S:1:pos:R:3:force:R:3:mono1_force:R:3:mono2_force:R:3 energy=-4153.919255109482459867 mono1_energy=-2076.94278702032388501662 mono2_energy=-2076.97160763613500701904
O       1.57615000      5.35575600     -0.74120600	      0.11644788      1.48630139     -0.88279766	      0.19012365      1.46316489     -0.85099369	     -0.00016453      0.00000119     -0.00002353
H       1.69294500      6.19767400     -1.28564800	     -0.18446420     -2.10449426      0.88742613	     -0.23186614     -2.11844107      0.87928014	     -0.00023465     -0.00000034     -0.00015564
H       1.60848300      4.59202100     -1.33776000	      0.06321734      0.62896521     -0.02024989	      0.04073593      0.65547127     -0.02883601	     -0.00027736      0.00010926     -0.00012162
O      -2.23700900      5.95352300     -3.19183500	     -1.11693638      0.98447965      1.88484513	      0.00017800      0.00008109      0.00012988	     -1.13143399      0.97213639      1.91538833
H      -1.86614500      6.25415700     -2.33560100	     -0.50048203     -0.25063055     -0.69996182	      0.00061820     -0.00025005      0.00020433	     -0.50629894     -0.23068789     -0.73828273
H      -1.48195700      5.65246500     -3.63656600	      1.62221739     -0.74462145     -1.16926189	      0.00021037     -0.00002612      0.00021535	      1.63840947     -0.74155861     -1.17680480
6
Lattice="20.00000000 0.00000000 0.00000000 0.00000000 20.00000000 0.00000000 0.00000000 0.00000000 20.00000000" Properties=species:S:1:pos:R:3:force:R:3:mono1_force:R:3:mono2_force:R:3 energy=-4153.9313113359980424982 mono1_energy=-2076.9423790008083620339 mono2_energy=-2077.00115706304286087547
O       1.57615000      5.35575600     -0.74120600	      0.19614854      1.43047757     -0.85018893	      0.19094280      1.46280908     -0.85218727	     -0.00002779     -0.00012375     -0.00009304
H       1.69294500      6.19767400     -1.28564800	     -0.22975530     -2.10984851      0.87613467	     -0.23159991     -2.11865610      0.87991926	     -0.00004211     -0.00008454      0.00002572
H       1.60848300      4.59202100     -1.33776000	      0.03197130      0.68666895     -0.03093639	      0.04082210      0.65522925     -0.02787086	      0.00029471     -0.00019904     -0.00012950
O       3.04516500      0.57576800     -2.90146200	     -0.88351898     -0.67438016     -1.05389853	      0.00000464      0.00009418      0.00006976	     -0.87412899     -0.70784610     -1.04332023
H       2.12014700      0.82920000     -3.04397000	      0.41730916     -0.15437326      0.05050614	     -0.00002450      0.00021691      0.00007459	      0.42469446     -0.12971944      0.05288501
H       3.34036700      1.15344400     -2.22473700	      0.46784528      0.82145541      1.00838304	     -0.00014513      0.00030668     -0.00000548	      0.44920972      0.83797287      0.99063203
6
Lattice="20.00000000 0.00000000 0.00000000 0.00000000 20.00000000 0.00000000 0.00000000 0.00000000 20.00000000" Properties=species:S:1:pos:R:3:force:R:3:mono1_force:R:3:mono2_force:R:3 energy=-4153.9496925692188355919 mono1_energy=-2076.94230720844596690073 mono2_energy=-2076.98165279324609877197
O       1.57615000      5.35575600     -0.74120600	      0.19943675      1.46787600     -0.82418474	      0.19083907      1.46277115     -0.85195875	      0.00005008     -0.00010549     -0.00005150
H       1.69294500      6.19767400     -1.28564800	     -0.23779614     -2.13181707      0.87191110	     -0.23175326     -2.11861847      0.87993018	     -0.00000597     -0.00006220      0.00001853
H       1.60848300      4.59202100     -1.33776000	      0.03214893      0.65544350     -0.06510848	      0.04077910      0.65553225     -0.02833247	     -0.00014737     -0.00015070     -0.00033224
O       0.25908900      2.11055200     -4.49458200	     -0.06965335      0.47295246      0.09301398	      0.00017818      0.00018214      0.00028194	     -0.09313877      0.45174212      0.06484666
H       0.76365600      1.53542300     -5.08132700	     -0.35111151     -0.24506774      0.48197128	     -0.00004791      0.00005395      0.00003237	     -0.35012956     -0.24161555      0.48792631
H      -0.21035800      1.60309800     -3.81820200	      0.42697532     -0.21938715     -0.55760314	      0.00000482      0.00007899      0.00004674	      0.44337159     -0.20980817     -0.55240777
6
Lattice="20.00000000 0.00000000 0.00000000 0.00000000 20.00000000 0.00000000 0.00000000 0.00000000 20.00000000" Properties=species:S:1:pos:R:3:force:R:3:mono1_force:R:3:mono2_force:R:3 energy=-4153.93803084299310047 mono1_energy=-2076.94203471877722094803 mono2_energy=-2076.99753392237974332514
O       1.57615000      5.35575600     -0.74120600	      0.22741283      1.46451315     -0.84099018	      0.19114369      1.46290653     -0.85160645	     -0.00037485     -0.00003680      0.00010364
H       1.69294500      6.19767400     -1.28564800	     -0.24291281     -2.12421880      0.87811938	     -0.23200285     -2.11886731      0.87995353	      0.00003192     -0.00001503      0.00005114
H       1.60848300      4.59202100     -1.33776000	      0.02314901      0.66084384     -0.02947378	      0.04060075      0.65589448     -0.02814455	      0.00003003      0.00000580      0.00004149
O      -2.60202700      4.73354700      1.39854800	      0.05195067      0.99742811      0.74358158	      0.00019026      0.00003277     -0.00011420	      0.10538153      1.01021079      0.72901307
H      -2.48472900      5.48603300      2.01710200	     -0.23093760     -0.46945596     -0.74711171	      0.00001159     -0.00000871     -0.00002742	     -0.25405867     -0.46493471     -0.73554446
H      -2.16319400      4.04471000      1.89417500	      0.17133790     -0.52911035     -0.00412530	      0.00005655      0.00004225     -0.00006092	      0.14899005     -0.54523004      0.00633513
6
Lattice="20.00000000 0.00000000 0.00000000 0.00000000 20.00000000 0.00000000 0.00000000 0.00000000 20.00000000" Properties=species:S:1:pos:R:3:force:R:3:mono1_force:R:3:mono2_force:R:3 energy=-4153.9591170159818191624 mono1_energy=-2076.94229378054990015774 mono2_energy=-2077.01044451599139951517
O       1.57615000      5.35575600     -0.74120600	      0.17514463      1.43531287     -0.84081158	      0.19121199      1.46277182     -0.85218848	      0.00003183     -0.00021621     -0.00008501
H       1.69294500      6.19767400     -1.28564800	     -0.22987745     -2.11564476      0.87666349	     -0.23191488     -2.11865634      0.87988925	      0.00010962     -0.00016225     -0.00002121
H       1.60848300      4.59202100     -1.33776000	      0.05528374      0.67494353     -0.04907894	      0.04047477      0.65538521     -0.02769704	     -0.00039504     -0.00022397      0.00000491
O      -0.12625100      0.65909500     -2.13227700	     -0.10379163      0.15997118      0.01631710	      0.00003191      0.00009409     -0.00003879	     -0.12968028      0.12680971      0.03984868
H       0.58278000      0.82605800     -1.49728900	     -0.37469542      0.09917689     -0.09863764	      0.00004278      0.00018628      0.00000285	     -0.36615876      0.12189490     -0.12106981
H      -0.82589500      1.30593000     -1.95132500	      0.47793612     -0.25375971      0.09554757	      0.00015343      0.00021895      0.00003221	      0.49609263     -0.24810219      0.08132244
6
Lattice="20.00000000 0.00000000 0.00000000 0.00000000 20.00000000 0.00000000 0.00000000 0.00000000 20.00000000" Properties=species:S:1:pos:R:3:force:R:3:mono1_force:R:3:mono2_force:R:3 energy=-4153.8870688325851578479 mono1_energy=-2076.94186605099567664319 mono2_energy=-2076.95177368287280560959
O       1.57615000      5.35575600     -0.74120600	      0.18782259      1.48791833     -0.85917829	      0.19100153      1.46296765     -0.85193040	      0.00006016     -0.00005353      0.00004290
H       1.69294500      6.19767400     -1.28564800	     -0.23304083     -2.12315624      0.87711537	     -0.23175884     -2.11889968      0.88003325	     -0.00001728     -0.00001299      0.00001788
H       1.60848300      4.59202100     -1.33776000	      0.04467846      0.64271582     -0.01463279	      0.04078807      0.65586273     -0.02801405	      0.00000378      0.00000260      0.00001986
O       3.29827300      1.75295300      3.13502700	     -1.48760477      1.66470021      0.24702666	      0.00001656      0.00007298     -0.00007194	     -1.49440253      1.68991452      0.24557229
H       3.97249900      1.10395400      3.13699300	      1.15883141     -0.63228978      0.48345164	     -0.00003279      0.00000517     -0.00000974	      1.15941673     -0.63704303      0.47922420
H       3.40113200      2.39370100      3.87038000	      0.32931314     -1.03988833     -0.73378259	     -0.00001452     -0.00000886     -0.00000713	      0.33493914     -1.05280757     -0.72487713
6
Lattice="20.00000000 0.00000000 0.00000000 0.00000000 20.00000000 0.00000000 0.00000000 0.00000000 20.00000000" Properties=species:S:1:pos:R:3:force:R:3:mono1_force:R:3:mono2_force:R:3 energy=-4153.9185487225380560718 mono1_energy=-2076.9426556519975477479 mono2_energy=-2077.00008508502167327593
O       1.57615000      5.35575600     -0.74120600	      0.21808245      1.45646308     -0.87801883	      0.19008308      1.46289721     -0.85131395	     -0.00009671     -0.00005957     -0.00014431
H       1.69294500      6.19767400     -1.28564800	     -0.24973615     -2.10125460      0.89264976	     -0.23138880     -2.11868780      0.87942406	     -0.00009561     -0.00007458     -0.00034543
H       1.60848300      4.59202100     -1.33776000	      0.02952507      0.64315380      0.00024264	      0.04102044      0.65582501     -0.02912789	     -0.00018619      0.00019505     -0.00067846
O      -0.41696500      5.46652000     -4.94656100	      1.15406981     -0.28255824      0.37828645	      0.00016498     -0.00003373      0.00024525	      1.13593012     -0.28423632      0.34968409
H       0.38856000      5.04460600     -4.55853900	     -1.05101287      0.56766571     -0.54625951	      0.00010106      0.00009813      0.00071569	     -1.03857501      0.57317816     -0.51777143
H      -0.07154200      6.25320100     -5.39422200	     -0.10092832     -0.28346974      0.15309949	      0.00001923     -0.00009882      0.00005685	     -0.09697660     -0.28900274      0.16925554
6
Lattice="20.00000000 0.00000000 0.00000000 0.00000000 20.00000000 0.00000000 0.00000000 0.00000000 20.00000000" Properties=species:S:1:pos:R:3:force:R:3:mono1_force:R:3:mono2_force:R:3 energy=-4153.9654913865813692778 mono1_energy=-2076.94219783903674969651 mono2_energy=-2077.01518803155049769341
O       1.57615000      5.35575600     -0.74120600	      0.15744706      1.47575196     -0.85873290	      0.19085238      1.46289054     -0.85138896	     -0.00016389     -0.00001901     -0.00002084
H       1.69294500      6.19767400     -1.28564800	     -0.21586458     -2.11776993      0.88014006	     -0.23188416     -2.11864571      0.87971097	     -0.00002348     -0.00002572     -0.00001486
H       1.60848300      4.59202100     -1.33776000	      0.05043453      0.64133448     -0.02818311	      0.04060239      0.65568469     -0.02835748	     -0.00012030      0.00002975     -0.00004450
O      -3.57799800      3.84218400     -1.90909600	     -0.37376333      0.24093741     -0.27572602	      0.00005742      0.00006202      0.00002421	     -0.37315142      0.24526178     -0.25406613
H      -2.91248300      4.52182600     -1.76076600	     -0.07048328     -0.01060784     -0.01167207	      0.00027912     -0.00002703     -0.00008442	     -0.07992124     -0.01608756     -0.03574071
H      -4.28931300      4.29859600     -2.39053200	      0.45222961     -0.22964608      0.29417405	      0.00009284      0.00003549      0.00009568	      0.45338034     -0.22915924      0.28988704
6
Lattice="20.00000000 0.00000000 0.00000000 0.00000000 20.00000000 0.00000000 0.00000000 0.00000000 20.00000000" Properties=species:S:1:pos:R:3:force:R:3:mono1_force:R:3:mono2_force:R:3 energy=-4153.9436387839136216533 mono1_energy=-2076.94190976514294901086 mono2_energy=-2076.97666339421385739976
O       1.57615000      5.35575600     -0.74120600	      0.19776175      1.45960999     -0.83259530	      0.19098149      1.46298760     -0.85176039	      0.00005266     -0.00007163      0.00021351
H       1.69294500      6.19767400     -1.28564800	     -0.23406857     -2.11636927      0.87885015	     -0.23176244     -2.11893356      0.87999683	     -0.00003028     -0.00000723      0.00006419
H       1.60848300      4.59202100     -1.33776000	      0.03802929      0.65399225     -0.03075477	      0.04078372      0.65592426     -0.02806420	     -0.00002829      0.00000369      0.00005528
O       2.23526500      4.30479800      4.65153100	     -0.22203730      0.29515181     -0.90010743	     -0.00003247      0.00001852     -0.00003217	     -0.22976350      0.30197398     -0.92587370
H       3.17500800      4.37739700      4.39506800	     -0.91993656      0.04570810     -0.11160479	     -0.00001324      0.00000115     -0.00001910	     -0.90702790      0.04224168     -0.09941309
H       1.68497800      4.56428100      3.86833700	      1.14025139     -0.33809287      0.99621213	      0.00004293      0.00000203     -0.00012098	      1.13679731     -0.34414048      1.02495382
6
Lattice="20.00000000 0.00000000 0.00000000 0.00000000 20.00000000 0.00000000 0.00000000 0.00000000 20.00000000" Properties=species:S:1:pos:R:3:force:R:3:mono1_force:R:3:mono2_force:R:3 energy=-4153.9536541814092622029 mono1_energy=-2076.94230246526560866427 mono2_energy=-2076.99133338999638933597
O       1.57615000      5.35575600     -0.74120600	      0.16602959      1.48300051     -0.81850187	      0.19135069      1.46298801     -0.85150228	      0.00003113     -0.00004919     -0.00015186
H       1.69294500      6.19767400     -1.28564800	     -0.22310813     -2.15167770      0.86766515	     -0.23184464     -2.11881942      0.87954220	      0.00003858     -0.00003656     -0.00017165
H       1.60848300      4.59202100     -1.33776000	      0.06636230      0.66458885     -0.06136618	      0.04065246      0.65585376     -0.02852093	      0.00011779      0.00016723     -0.00033322
O       3.28969200      5.45845800     -5.11275300	      0.35781142     -1.01370457      0.90903292	     -0.00019131     -0.00001232      0.00030251	      0.38801936     -1.01646362      0.86631330
H       2.90252200      5.32359200     -5.95851900	     -0.49050984     -0.27950384     -1.08187563	      0.00006734     -0.00000515      0.00006327	     -0.49217744     -0.27684295     -1.07242586
H       3.33326100      6.39227900     -5.03273900	      0.12341465      1.29729676      0.18504560	     -0.00003455     -0.00000488      0.00011523	      0.10397059      1.29322511      0.20676928
6
Lattice="20.00000000 0.00000000 0.00000000 0.00000000 20.00000000 0.00000000 0.00000000 0.00000000 20.00000000" Properties=species:S:1:pos:R:3:force:R:3:mono1_force:R:3:mono2_force:R:3 energy=-4153.9220827885382517881 mono1_energy=-2076.94183197472761651246 mono2_energy=-2076.9827762188987726384
O       1.57615000      5.35575600     -0.74120600	      0.17441646      1.45228673     -0.85663636	      0.19098714      1.46295066     -0.85188903	      0.00008553      0.00001865      0.00006220
H       1.69294500      6.19767400     -1.28564800	     -0.22199733     -2.11519759      0.88653428	     -0.23174718     -2.11886200      0.88002097	     -0.00001593     -0.00000611      0.00001742
H       1.60848300      4.59202100     -1.33776000	      0.04364454      0.65958258     -0.02844969	      0.04078878      0.65593331     -0.02805992	     -0.00002145      0.00001348      0.00003387
O       4.17351800      7.20129400      4.10034700	      0.87947884     -1.03611406      0.87242108	     -0.00003029     -0.00003451     -0.00004415	      0.86417899     -1.05240216      0.85391389
H       3.26960100      7.21010200      4.43192000	      0.10052107     -0.11346492      0.06159441	      0.00000283     -0.00000023     -0.00001975	      0.10558691     -0.10302149      0.07550501
H       4.65385800      6.53396000      4.66728700	     -0.97606357      1.15290726     -0.93546373	     -0.00000128      0.00001277     -0.00000811	     -0.96981406      1.15539764     -0.92953239
6